INSANE! Membrane UpperLeaflet>DPPC:DIPC:CHOL=20.0:65.0:15.0 LowerLeaflet>DPPC:DIPC:CHOL=20.0:65.0:15.0
72637
    1DPPC   NC3    1  15.286  10.073   6.689 -0.1309 -0.1608  0.1863
    1DPPC   PO4    2  15.101   9.757   6.629  0.0572  0.1501  0.1574
    1DPPC   GL1    3  15.049   9.587   6.187  0.1907 -0.2767  0.0825
    1DPPC   GL2    4  15.375   9.445   6.128 -0.1713 -0.0794 -0.1402
    1DPPC   C1A    5  14.964   9.523   5.830 -0.0934 -0.2655 -0.2534
    1DPPC   C2A    6  15.065   9.505   5.388  0.0323 -0.0865  0.1613
    1DPPC   C3A    7  14.888   9.429   5.032 -0.1577  0.0908 -0.0917
    1DPPC   C4A    8  14.672   9.103   5.013  0.2729 -0.0697  0.0907
    1DPPC   C1B    9  15.500   9.296   5.788 -0.0498  0.1003  0.2679
    1DPPC   C2B   10  15.462   9.270   5.360 -0.0400 -0.0741  0.0514
    1DPPC   C3B   11  15.273   9.141   4.982 -0.1343  0.0102 -0.3434
    1DPPC   C4B   12  15.187   9.341   4.552  0.1238  0.0555  0.1378
    1DPPC   NC3   13  13.849  20.533   6.602  0.1514 -0.2787 -0.0159
    1DPPC   PO4   14  13.736  20.770   6.283  0.1109  0.1020 -0.1321
    1DPPC   GL1   15  13.811  21.016   5.873  0.1121 -0.0736  0.0623
    1DPPC   GL2   16  14.096  21.149   5.785  0.2125  0.1388  0.0056
    1DPPC   C1A   17  13.717  20.980   5.438  0.0269  0.0523 -0.1262
    1DPPC   C2A   18  13.720  21.078   5.025 -0.2236  0.2600  0.1122
    1DPPC   C3A   19  13.682  21.432   4.661  0.0843  0.1513  0.1248
    1DPPC   C4A   20  13.322  21.527   4.528 -0.0011 -0.2894  0.2182
    1DPPC   C1B   21  14.195  20.999   5.413  0.1312 -0.2997  0.0573
    1DPPC   C2B   22  14.193  21.012   4.999 -0.1448 -0.0389 -0.5203
    1DPPC   C3B   23  14.099  21.145   4.536  0.1556 -0.1703 -0.2184
    1DPPC   C4B   24  14.482  21.213   4.225 -0.2042  0.0679  0.0917
    1DPPC   NC3   25  14.090  15.704   7.017  0.0485  0.1091 -0.1189
    1DPPC   PO4   26  14.450  15.521   6.700 -0.1349 -0.0767  0.2471
    1DPPC   GL1   27  14.328  15.495   6.262  0.0417  0.0722 -0.0554
    1DPPC   GL2   28  14.095  15.551   6.256  0.1481  0.0214  0.0375
    1DPPC   C1A   29  14.166  15.448   5.731 -0.0255 -0.2323  0.3457
    1DPPC   C2A   30  14.215  15.442   5.374  0.0082  0.0606  0.0296
    1DPPC   C3A   31  14.421  15.558   4.934 -0.0524 -0.1352 -0.0992
    1DPPC   C4A   32  14.755  15.536   4.660  0.0085  0.0072 -0.1471
    1DPPC   C1B   33  13.857  15.847   6.088 -0.1559 -0.1461 -0.2293
    1DPPC   C2B   34  13.881  15.862   5.663  0.3490 -0.0893  0.1348
    1DPPC   C3B   35  13.876  15.810   5.282  0.1676 -0.0088  0.1925
    1DPPC   C4B   36  13.836  15.688   4.863  0.2834 -0.2893 -0.0672
    1DPPC   NC3   37  16.611  15.203   6.330  0.0734  0.0094 -0.0737
    1DPPC   PO4   38  16.868  14.812   6.484  0.2103  0.2511 -0.1454
    1DPPC   GL1   39  16.737  14.670   6.147  0.3446  0.0622  0.1752
    1DPPC   GL2   40  16.554  14.883   5.926 -0.1119  0.0500  0.1999
    1DPPC   C1A   41  16.850  14.477   5.769  0.2288 -0.2179 -0.3465
    1DPPC   C2A   42  16.749  14.578   5.344  0.0229 -0.2901 -0.0214
    1DPPC   C3A   43  16.708  14.563   4.900  0.0301  0.2090  0.3917
    1DPPC   C4A   44  16.516  14.546   4.461  0.1223  0.0527 -0.2355
    1DPPC   C1B   45  16.817  14.965   5.660 -0.1969  0.2362  0.0185
    1DPPC   C2B   46  16.858  15.067   5.224 -0.2454  0.3281 -0.2348
    1DPPC   C3B   47  16.854  15.076   4.847  0.0589 -0.1411 -0.1342
    1DPPC   C4B   48  16.749  14.961   4.458  0.1741  0.3658  0.1147
    1DPPC   NC3   49  14.309  22.738   6.573 -0.2611  0.1238 -0.0062
    1DPPC   PO4   50  14.593  23.006   6.357  0.0859  0.1535  0.4669
    1DPPC   GL1   51  14.637  23.091   5.882  0.0420  0.2500  0.4512
    1DPPC   GL2   52  14.678  23.352   5.648 -0.1585  0.3230  0.1530
    1DPPC   C1A   53  14.836  22.841   5.561  0.2660  0.1657 -0.0661
    1DPPC   C2A   54  14.988  22.719   5.138 -0.0500  0.0544 -0.3332
    1DPPC   C3A   55  14.810  22.810   4.754 -0.0493  0.0487 -0.3885
    1DPPC   C4A   56  14.493  22.970   4.473  0.0691 -0.2974 -0.0365
    1DPPC   C1B   57  15.037  23.236   5.254  0.2804  0.2091  0.0386
    1DPPC   C2B   58  15.263  23.065   4.923 -0.1609 -0.3324  0.1440
    1DPPC   C3B   59  15.523  23.093   4.547 -0.1930  0.0047 -0.1524
    1DPPC   C4B   60  15.759  22.776   4.316  0.2369  0.1209 -0.1134
    1DPPC   NC3   61  18.490  19.891   7.105  0.0063 -0.4239 -0.3525
    1DPPC   PO4   62  18.659  20.103   6.674 -0.0719 -0.0394 -0.1046
    1DPPC   GL1   63  18.579  19.977   6.283 -0.1001 -0.0482  0.1254
    1DPPC   GL2   64  18.873  20.101   6.205 -0.0294 -0.0197  0.0073
    1DPPC   C1A   65  18.247  19.798   6.095 -0.0950 -0.0220  0.1578
    1DPPC   C2A   66  17.880  19.929   5.866  0.2656  0.0373  0.6344
    1DPPC   C3A   67  17.564  20.088   5.501 -0.1061 -0.0033 -0.0006
    1DPPC   C4A   68  17.161  20.167   5.509  0.0129 -0.0333 -0.0915
    1DPPC   C1B   69  18.976  20.013   5.827 -0.0250  0.0662 -0.0619
    1DPPC   C2B   70  18.991  19.987   5.467 -0.0247 -0.1117 -0.1126
    1DPPC   C3B   71  18.967  20.112   5.050 -0.1676  0.0413 -0.2114
    1DPPC   C4B   72  18.719  19.974   4.691 -0.3361 -0.1931  0.2023
    1DPPC   NC3   73  13.296   6.286   7.342  0.0851 -0.0602 -0.1004
    1DPPC   PO4   74  13.193   6.665   7.435  0.1926 -0.0373 -0.0324
    1DPPC   GL1   75  13.093   6.530   6.907 -0.1480  0.0418 -0.0350
    1DPPC   GL2   76  13.332   6.861   6.623 -0.1828  0.1483  0.1551
    1DPPC   C1A   77  13.121   6.368   6.405 -0.1201  0.2374  0.2742
    1DPPC   C2A   78  13.173   6.300   5.975  0.1241  0.1000  0.2099
    1DPPC   C3A   79  13.256   6.367   5.485 -0.0843 -0.0351  0.0209
    1DPPC   C4A   80  12.970   6.212   5.110 -0.1660 -0.1782 -0.3410
    1DPPC   C1B   81  13.189   6.830   6.162  0.2348  0.0682 -0.0683
    1DPPC   C2B   82  13.057   6.708   5.763  0.1568  0.0253 -0.1531
    1DPPC   C3B   83  12.827   6.646   5.335 -0.0167  0.0504  0.2408
    1DPPC   C4B   84  12.794   6.859   4.839 -0.1272  0.0865 -0.0074
    1DPPC   NC3   85   8.217  11.968   7.217  0.2389  0.3222  0.3411
    1DPPC   PO4   86   7.876  12.345   7.205  0.0195 -0.4088 -0.0269
    1DPPC   GL1   87   7.999  12.207   6.768 -0.0589  0.0107 -0.0338
    1DPPC   GL2   88   7.976  11.880   6.655 -0.1645 -0.0991  0.1140
    1DPPC   C1A   89   8.217  12.289   6.429 -0.1164  0.0191 -0.0970
    1DPPC   C2A   90   8.474  12.310   6.116 -0.0521 -0.1340 -0.1254
    1DPPC   C3A   91   8.550  12.478   5.770 -0.1290  0.2543 -0.2570
    1DPPC   C4A   92   8.663  12.402   5.349 -0.0501 -0.1077  0.2184
    1DPPC   C1B   93   8.039  11.764   6.267  0.1017  0.0857  0.0481
    1DPPC   C2B   94   8.172  11.944   5.930 -0.0598 -0.1352  0.0237
    1DPPC   C3B   95   8.584  11.891   5.646  0.1887  0.0630  0.0090
    1DPPC   C4B   96   8.697  11.774   5.253 -0.1504  0.0767  0.1619
    1DPPC   NC3   97  17.342   8.478   6.905  0.0097  0.2152  0.2423
    1DPPC   PO4   98  17.266   8.828   6.613  0.1088  0.0787 -0.0082
    1DPPC   GL1   99  17.490   9.028   6.279  0.1621 -0.2068 -0.0692
    1DPPC   GL2  100  17.416   9.275   6.074  0.3552 -0.0359  0.0721
    1DPPC   C1A  101  17.496   8.728   5.846  0.2953 -0.1740 -0.1556
    1DPPC   C2A  102  17.454   8.838   5.518  0.0235 -0.2691  0.3708
    1DPPC   C3A  103  17.486   8.725   5.097 -0.0395 -0.1702  0.0867
    1DPPC   C4A  104  17.589   8.511   4.689 -0.0353  0.2260  0.1763
    1DPPC   C1B  105  17.189   9.167   5.768 -0.3227  0.1456 -0.2854
    1DPPC   C2B  106  17.113   9.264   5.521 -0.0446 -0.2608  0.2826
    1DPPC   C3B  107  17.111   9.194   5.111  0.0361  0.1222 -0.1716
    1DPPC   C4B  108  17.088   9.010   4.756  0.0304 -0.1224 -0.1398
    1DPPC   NC3  109  27.321  10.518   6.175 -0.0222 -0.0060 -0.1324
    1DPPC   PO4  110  26.857  10.220   6.207 -0.1290 -0.0466 -0.1757
    1DPPC   GL1  111  26.914  10.206   5.816 -0.1271 -0.0277  0.2964
    1DPPC   GL2  112  26.625  10.381   5.790  0.1567  0.1148  0.1817
    1DPPC   C1A  113  27.145   9.988   5.462  0.2986  0.1726  0.0784
    1DPPC   C2A  114  27.251   9.854   5.001  0.0362  0.1606 -0.2449
    1DPPC   C3A  115  27.483   9.712   4.747 -0.0761  0.0670 -0.1181
    1DPPC   C4A  116  27.713   9.630   4.463 -0.0378 -0.2565  0.0828
    1DPPC   C1B  117  26.595  10.175   5.259  0.2740  0.1435  0.4142
    1DPPC   C2B  118  26.818  10.133   4.776  0.0382 -0.0289  0.1642
    1DPPC   C3B  119  26.802   9.816   4.608  0.4090  0.1903 -0.1603
    1DPPC   C4B  120  27.121   9.529   4.433  0.0277 -0.0178  0.2735
    1DPPC   NC3  121  16.687  14.357   6.587  0.0127  0.1448  0.0937
    1DPPC   PO4  122  16.252  14.221   6.707 -0.0167  0.0803 -0.3408
    1DPPC   GL1  123  16.284  14.225   6.335 -0.0063  0.1274 -0.1492
    1DPPC   GL2  124  16.259  14.439   6.187  0.1703  0.3972 -0.0448
    1DPPC   C1A  125  15.878  14.240   6.014 -0.3041  0.3166 -0.0546
    1DPPC   C2A  126  15.825  14.345   5.558 -0.3287 -0.0576 -0.0679
    1DPPC   C3A  127  15.906  14.322   5.150 -0.3021  0.2696  0.0344
    1DPPC   C4A  128  16.201  14.429   4.835  0.0504 -0.0578  0.0965
    1DPPC   C1B  129  16.336  14.332   5.769 -0.1719 -0.0585 -0.1918
    1DPPC   C2B  130  16.350  14.295   5.315 -0.5366  0.1185 -0.0174
    1DPPC   C3B  131  16.579  14.078   4.973 -0.0801  0.2308  0.0373
    1DPPC   C4B  132  16.749  14.087   4.596 -0.1534 -0.1509 -0.0334
    1DPPC   NC3  133  14.783  14.731   7.304 -0.0990 -0.1310  0.0048
    1DPPC   PO4  134  14.278  14.747   7.101 -0.2447 -0.2495  0.0134
    1DPPC   GL1  135  14.305  14.657   6.714 -0.0531  0.0056 -0.2273
    1DPPC   GL2  136  14.299  14.937   6.612 -0.0072  0.2401 -0.3809
    1DPPC   C1A  137  14.162  14.550   6.322  0.2892 -0.0425 -0.4311
    1DPPC   C2A  138  13.905  14.355   6.011  0.1250  0.1455 -0.1565
    1DPPC   C3A  139  13.854  14.325   5.625  0.1174  0.0781  0.0648
    1DPPC   C4A  140  13.743  14.188   5.211 -0.0699 -0.0329  0.2951
    1DPPC   C1B  141  14.018  15.010   6.158 -0.0570 -0.0369  0.1992
    1DPPC   C2B  142  14.019  14.999   5.679  0.0783 -0.2693  0.1055
    1DPPC   C3B  143  14.184  14.975   5.227 -0.2380 -0.2523  0.1319
    1DPPC   C4B  144  13.971  15.235   4.984  0.1892 -0.1961  0.0020
    1DPPC   NC3  145  13.366  21.082   6.224 -0.0163 -0.0339 -0.0336
    1DPPC   PO4  146  13.054  21.338   6.198 -0.2131  0.0524  0.1398
    1DPPC   GL1  147  13.020  21.081   5.813  0.4015  0.0603 -0.0730
    1DPPC   GL2  148  13.267  20.924   5.619  0.0616  0.2588 -0.0787
    1DPPC   C1A  149  12.784  21.095   5.374  0.0829 -0.2153  0.0252
    1DPPC   C2A  150  12.808  21.034   4.968  0.0250  0.1537 -0.0316
    1DPPC   C3A  151  12.863  21.206   4.527  0.0472 -0.0350 -0.1340
    1DPPC   C4A  152  12.604  20.915   4.135  0.0898  0.1333 -0.0865
    1DPPC   C1B  153  13.286  20.799   5.254  0.3916 -0.1513  0.0840
    1DPPC   C2B  154  13.407  20.738   4.854 -0.2863 -0.0280 -0.2112
    1DPPC   C3B  155  13.605  20.922   4.452  0.1838 -0.2302 -0.0774
    1DPPC   C4B  156  13.724  21.171   4.081  0.1069  0.1104 -0.0411
    1DPPC   NC3  157  12.178  10.606   7.276  0.0269  0.0755  0.2419
    1DPPC   PO4  158  12.337  10.780   6.888  0.2602 -0.2620 -0.2985
    1DPPC   GL1  159  12.148  10.597   6.473 -0.1738  0.0454  0.3134
    1DPPC   GL2  160  11.927  10.713   6.325 -0.0579  0.1031 -0.0246
    1DPPC   C1A  161  12.327  10.415   6.194  0.1652 -0.2791 -0.5688
    1DPPC   C2A  162  12.415  10.353   5.782  0.1631 -0.0892 -0.0361
    1DPPC   C3A  163  12.066  10.338   5.470  0.0070 -0.0414  0.3301
    1DPPC   C4A  164  12.048  10.299   5.033 -0.0492 -0.0460 -0.2123
    1DPPC   C1B  165  11.838  10.430   5.971  0.0996 -0.0767 -0.0713
    1DPPC   C2B  166  11.426  10.278   5.737 -0.1314  0.0142  0.2387
    1DPPC   C3B  167  11.187  10.405   5.423  0.1545  0.1647 -0.0495
    1DPPC   C4B  168  10.976  10.760   5.331  0.1809 -0.0710  0.1323
    1DPPC   NC3  169  13.935  14.366   7.163  0.3883 -0.0272  0.0911
    1DPPC   PO4  170  13.788  13.994   6.806 -0.1124  0.2118 -0.1723
    1DPPC   GL1  171  13.796  13.794   6.379 -0.1051  0.2168 -0.2763
    1DPPC   GL2  172  13.432  13.745   6.435 -0.0568 -0.1014  0.0729
    1DPPC   C1A  173  13.770  13.889   5.988  0.0660 -0.1030 -0.0170
    1DPPC   C2A  174  13.773  13.837   5.532 -0.0539  0.2284  0.3029
    1DPPC   C3A  175  13.737  13.634   5.173 -0.2733 -0.3141  0.2046
    1DPPC   C4A  176  13.612  13.384   4.743  0.0821 -0.0509 -0.0942
    1DPPC   C1B  177  13.290  13.713   6.172  0.0247 -0.0755  0.0563
    1DPPC   C2B  178  13.214  13.663   5.878 -0.1256 -0.2912  0.1858
    1DPPC   C3B  179  13.300  13.603   5.511  0.1541 -0.0315 -0.0014
    1DPPC   C4B  180  13.163  13.567   5.072 -0.2802  0.1761  0.1396
    1DPPC   NC3  181  13.056  18.050   6.724  0.1020 -0.0330  0.0766
    1DPPC   PO4  182  13.485  18.062   6.601 -0.1623  0.1022  0.1060
    1DPPC   GL1  183  13.508  17.969   6.258 -0.0733 -0.0717  0.0166
    1DPPC   GL2  184  13.638  18.137   5.962 -0.2664  0.0630 -0.1579
    1DPPC   C1A  185  13.704  17.620   5.930  0.0782  0.2578 -0.0207
    1DPPC   C2A  186  13.794  17.483   5.502 -0.2363 -0.1010  0.3298
    1DPPC   C3A  187  13.943  17.480   5.117  0.1266 -0.1125 -0.0097
    1DPPC   C4A  188  13.940  17.340   4.670 -0.1507 -0.0902  0.2391
    1DPPC   C1B  189  13.723  17.994   5.565  0.1632  0.2434 -0.1783
    1DPPC   C2B  190  13.688  17.886   5.227 -0.3067 -0.0349 -0.0398
    1DPPC   C3B  191  13.531  17.686   4.861  0.0530  0.0330  0.1020
    1DPPC   C4B  192  13.584  17.663   4.449 -0.0435  0.0066  0.0046
    1DPPC   NC3  193  12.228  18.475   6.380 -0.2412  0.0798  0.0423
    1DPPC   PO4  194  11.849  18.470   6.453 -0.0312  0.0781  0.1312
    1DPPC   GL1  195  11.584  18.623   6.066 -0.1774 -0.0869 -0.0496
    1DPPC   GL2  196  11.370  18.797   6.038  0.2925 -0.1342 -0.1584
    1DPPC   C1A  197  11.285  18.354   5.760 -0.0268 -0.0655  0.0855
    1DPPC   C2A  198  11.305  18.286   5.359  0.0518 -0.2031  0.1049
    1DPPC   C3A  199  11.357  18.197   4.924 -0.2514  0.2285  0.0476
    1DPPC   C4A  200  11.475  18.450   4.643 -0.0706 -0.2984  0.2717
    1DPPC   C1B  201  11.157  18.888   5.574  0.0334  0.1958  0.2565
    1DPPC   C2B  202  11.284  19.163   5.282  0.1701 -0.1583 -0.0104
    1DPPC   C3B  203  11.339  19.475   4.958 -0.2201 -0.0709  0.0782
    1DPPC   C4B  204  11.147  19.820   4.667  0.2116  0.0774 -0.0087
    1DPPC   NC3  205  28.572  13.931   6.235  0.1115 -0.0056 -0.1170
    1DPPC   PO4  206  28.813  14.301   6.046  0.0524  0.0267  0.0119
    1DPPC   GL1  207  28.920  14.173   5.603  0.1896  0.3904 -0.0644
    1DPPC   GL2  208  28.673  14.039   5.362 -0.2206  0.1968 -0.1553
    1DPPC   C1A  209  29.095  14.336   5.237 -0.4082  0.1539 -0.3524
    1DPPC   C2A  210  29.130  14.358   4.815 -0.0193 -0.1127  0.2975
    1DPPC   C3A  211  29.080  14.471   4.385  0.3071 -0.2656 -0.1470
    1DPPC   C4A  212  29.011  14.833   4.150  0.0443  0.1385  0.0505
    1DPPC   C1B  213  28.690  14.180   4.978 -0.1812 -0.0072  0.1304
    1DPPC   C2B  214  28.450  14.263   4.689  0.3680  0.1505  0.1586
    1DPPC   C3B  215  28.432  14.158   4.264  0.1429  0.1096 -0.0518
    1DPPC   C4B  216  28.655  13.917   3.925  0.1135 -0.4390 -0.1167
    1DPPC   NC3  217   8.443  16.090   6.348  0.0270  0.1090 -0.1476
    1DPPC   PO4  218   8.147  15.868   6.003 -0.1412 -0.0722  0.0598
    1DPPC   GL1  219   8.443  15.685   5.803  0.2163  0.0668  0.1017
    1DPPC   GL2  220   8.490  15.807   5.541  0.1415  0.0066 -0.3872
    1DPPC   C1A  221   8.601  15.361   5.607  0.0492 -0.0239 -0.0232
    1DPPC   C2A  222   8.687  15.413   5.183 -0.0341  0.2861 -0.0907
    1DPPC   C3A  223   8.604  15.268   4.735  0.0444 -0.2450  0.0234
    1DPPC   C4A  224   8.427  14.947   4.508 -0.0368  0.0540  0.0217
    1DPPC   C1B  225   8.484  15.862   5.116  0.0787 -0.1377  0.0865
    1DPPC   C2B  226   8.438  15.790   4.783 -0.3502 -0.1144 -0.2380
    1DPPC   C3B  227   8.192  15.450   4.601 -0.1343 -0.3234  0.0670
    1DPPC   C4B  228   7.988  15.173   4.301  0.0620  0.0178 -0.0961
    1DPPC   NC3  229  21.024  17.751   6.978  0.0919 -0.0822 -0.1894
    1DPPC   PO4  230  21.342  17.910   6.730 -0.1213 -0.3150 -0.1125
    1DPPC   GL1  231  21.270  18.102   6.326  0.1003  0.1765  0.0444
    1DPPC   GL2  232  20.953  18.199   6.200 -0.0628  0.0930  0.1217
    1DPPC   C1A  233  21.317  18.122   5.835  0.1570  0.1293  0.0205
    1DPPC   C2A  234  21.333  18.316   5.373 -0.0003  0.2963  0.2924
    1DPPC   C3A  235  21.506  18.390   4.944  0.0253 -0.3796  0.0377
    1DPPC   C4A  236  21.758  18.645   4.744  0.0143 -0.1337  0.1341
    1DPPC   C1B  237  20.832  18.283   5.772 -0.0246 -0.0674 -0.4868
    1DPPC   C2B  238  20.882  18.187   5.332  0.2685 -0.2043 -0.0411
    1DPPC   C3B  239  20.726  17.974   4.904 -0.0444 -0.2103 -0.1917
    1DPPC   C4B  240  20.796  17.838   4.505  0.3168 -0.0745  0.2461
    1DPPC   NC3  241   9.124  11.992   7.875 -0.2382  0.1336  0.3514
    1DPPC   PO4  242   9.186  12.169   7.561  0.1391 -0.0007  0.1473
    1DPPC   GL1  243   9.235  12.195   7.115  0.0811  0.0495  0.3520
    1DPPC   GL2  244   9.137  12.226   6.853 -0.2452 -0.0749 -0.1456
    1DPPC   C1A  245   9.605  12.349   6.846 -0.0425 -0.0780  0.0736
    1DPPC   C2A  246   9.716  12.641   6.582  0.0407 -0.0455 -0.1653
    1DPPC   C3A  247   9.973  12.460   6.312 -0.3211 -0.0584  0.3321
    1DPPC   C4A  248  10.038  12.430   5.878  0.4372  0.0304 -0.0518
    1DPPC   C1B  249   9.352  11.886   6.550 -0.5352 -0.0127  0.0857
    1DPPC   C2B  250   9.511  11.748   6.194 -0.2632  0.2504 -0.0135
    1DPPC   C3B  251   9.668  11.756   5.822  0.1294 -0.2564  0.1476
    1DPPC   C4B  252   9.949  11.949   5.516  0.1605  0.1321  0.0343
    1DPPC   NC3  253  10.034  14.809   7.167 -0.1841 -0.1122  0.2845
    1DPPC   PO4  254   9.988  14.607   6.675 -0.1921  0.1344  0.1255
    1DPPC   GL1  255  10.130  14.637   6.330 -0.2365  0.3129  0.0369
    1DPPC   GL2  256  10.509  14.686   6.409  0.3075 -0.3112  0.3459
    1DPPC   C1A  257  10.040  14.797   5.949 -0.2403  0.2152 -0.0613
    1DPPC   C2A  258   9.978  14.667   5.516  0.0275  0.1050 -0.2992
    1DPPC   C3A  259   9.929  14.499   5.124 -0.2418 -0.0649 -0.0808
    1DPPC   C4A  260   9.988  14.624   4.739 -0.1437  0.1872  0.1602
    1DPPC   C1B  261  10.579  14.596   5.934  0.2613  0.0362 -0.0585
    1DPPC   C2B  262  10.528  14.481   5.504  0.2286  0.5731  0.0468
    1DPPC   C3B  263  10.479  14.499   5.014 -0.0668 -0.2033  0.0612
    1DPPC   C4B  264  10.616  14.149   4.804  0.0738  0.2322  0.2629
    1DPPC   NC3  265  18.125  11.781   6.463 -0.1154  0.0876  0.0302
    1DPPC   PO4  266  18.106  12.239   6.672  0.1093 -0.0539 -0.0010
    1DPPC   GL1  267  17.985  12.328   6.285  0.1678 -0.0340  0.1292
    1DPPC   GL2  268  18.197  12.210   6.149 -0.1080  0.0820 -0.2336
    1DPPC   C1A  269  18.077  12.658   5.995 -0.0671 -0.2504  0.1660
    1DPPC   C2A  270  18.046  12.673   5.496 -0.1008 -0.0970 -0.0989
    1DPPC   C3A  271  17.977  12.509   5.049 -0.0577  0.1634  0.1211
    1DPPC   C4A  272  18.028  12.536   4.578 -0.0651 -0.0582  0.1389
    1DPPC   C1B  273  18.206  11.931   5.890  0.0130 -0.2264 -0.0359
    1DPPC   C2B  274  18.117  12.028   5.510 -0.2324 -0.0199  0.1529
    1DPPC   C3B  275  18.001  11.980   5.072 -0.1445  0.4459 -0.0305
    1DPPC   C4B  276  17.919  12.015   4.690  0.0226 -0.2853  0.1620
    1DPPC   NC3  277  17.982  23.325   6.979  0.0610  0.0825  0.0271
    1DPPC   PO4  278  18.095  22.963   7.167 -0.0724  0.0640 -0.2254
    1DPPC   GL1  279  18.046  22.870   6.754 -0.0838  0.2427  0.4229
    1DPPC   GL2  280  17.817  22.532   6.686  0.0894  0.3252 -0.0583
    1DPPC   C1A  281  18.243  22.905   6.359 -0.0892 -0.0785 -0.2049
    1DPPC   C2A  282  18.368  23.084   5.996 -0.0018 -0.2627  0.0169
    1DPPC   C3A  283  18.502  23.288   5.614  0.0784 -0.0246 -0.1173
    1DPPC   C4A  284  18.915  23.510   5.473  0.3316 -0.2562  0.0151
    1DPPC   C1B  285  17.616  22.485   6.299 -0.1482 -0.1362 -0.0541
    1DPPC   C2B  286  17.568  22.348   5.885  0.1377  0.2416 -0.2824
    1DPPC   C3B  287  17.748  22.483   5.510  0.1721 -0.0833  0.0118
    1DPPC   C4B  288  17.789  22.364   5.070 -0.1478  0.0781  0.0682
    1DPPC   NC3  289   2.763   7.883   6.927  0.0888 -0.0521 -0.0992
    1DPPC   PO4  290   2.809   7.372   6.979  0.2305 -0.3955  0.0193
    1DPPC   GL1  291   2.714   7.096   6.620 -0.1722  0.0882 -0.2890
    1DPPC   GL2  292   2.524   6.939   6.423 -0.1402 -0.0607 -0.0291
    1DPPC   C1A  293   2.900   6.997   6.125 -0.0437  0.2592  0.1077
    1DPPC   C2A  294   3.024   6.938   5.770  0.0633 -0.2170  0.2288
    1DPPC   C3A  295   3.147   7.017   5.398 -0.2824 -0.0376 -0.0027
    1DPPC   C4A  296   3.197   7.387   4.941 -0.3633  0.0788  0.1626
    1DPPC   C1B  297   2.505   6.732   6.020  0.1752 -0.0292  0.0892
    1DPPC   C2B  298   2.632   6.533   5.639  0.0931  0.1089 -0.1785
    1DPPC   C3B  299   2.924   6.518   5.302  0.3584  0.1444 -0.0504
    1DPPC   C4B  300   3.149   6.467   5.048  0.2385 -0.1883  0.0262
    1DPPC   NC3  301  12.593  18.757   6.836  0.2457  0.2145 -0.3071
    1DPPC   PO4  302  12.379  19.082   6.614  0.0545 -0.0071 -0.0427
    1DPPC   GL1  303  12.640  18.806   6.304 -0.0415  0.0716  0.3046
    1DPPC   GL2  304  12.989  18.810   6.229 -0.0144  0.3311 -0.0624
    1DPPC   C1A  305  12.658  18.552   5.852  0.2099 -0.0212 -0.0627
    1DPPC   C2A  306  12.409  18.435   5.547 -0.0420  0.0668 -0.3218
    1DPPC   C3A  307  12.329  18.350   5.055 -0.0155  0.0702  0.2929
    1DPPC   C4A  308  12.408  18.232   4.641 -0.0312  0.0562  0.2835
    1DPPC   C1B  309  13.091  18.945   5.789 -0.0810  0.1770 -0.3344
    1DPPC   C2B  310  13.188  19.076   5.371  0.1168 -0.6056  0.2448
    1DPPC   C3B  311  13.221  19.002   4.961 -0.1092  0.2476  0.2830
    1DPPC   C4B  312  13.220  18.984   4.478  0.0805 -0.0062  0.0758
    1DPPC   NC3  313   4.499  26.600   6.599 -0.2277 -0.3684  0.0487
    1DPPC   PO4  314   4.182  26.586   6.255  0.1012  0.2399  0.0961
    1DPPC   GL1  315   4.216  26.553   5.798 -0.0065 -0.1234 -0.0293
    1DPPC   GL2  316   4.481  26.376   5.632  0.2364 -0.0276  0.1461
    1DPPC   C1A  317   4.475  26.863   5.486  0.0345 -0.1982  0.1488
    1DPPC   C2A  318   4.589  26.806   5.012  0.0840  0.3493 -0.1557
    1DPPC   C3A  319   4.837  26.819   4.659 -0.0099  0.0653 -0.1844
    1DPPC   C4A  320   5.063  26.515   4.461 -0.4003 -0.2194 -0.0990
    1DPPC   C1B  321   4.573  26.295   5.200 -0.3178 -0.3247  0.1296
    1DPPC   C2B  322   4.996  26.522   5.049  0.0794  0.1240 -0.1806
    1DPPC   C3B  323   5.349  26.644   4.859 -0.0274 -0.4262 -0.4602
    1DPPC   C4B  324   5.589  26.467   4.523  0.0367  0.0332  0.0666
    1DPPC   NC3  325  14.567  20.703   6.995  0.2508  0.0897  0.2333
    1DPPC   PO4  326  14.330  20.435   6.699  0.1886 -0.0276 -0.2279
    1DPPC   GL1  327  14.485  20.554   6.306  0.0661 -0.1566 -0.0074
    1DPPC   GL2  328  14.222  20.688   6.159 -0.3719 -0.1738 -0.2847
    1DPPC   C1A  329  14.653  20.925   6.019  0.4016 -0.1672  0.1920
    1DPPC   C2A  330  14.595  21.095   5.619  0.0231 -0.2239  0.2124
    1DPPC   C3A  331  14.558  21.316   5.268 -0.2641 -0.0882  0.0691
    1DPPC   C4A  332  14.732  21.658   5.039 -0.2168 -0.3064 -0.2615
    1DPPC   C1B  333  14.423  20.602   5.771  0.2289 -0.0236  0.2068
    1DPPC   C2B  334  14.535  20.669   5.380 -0.0434 -0.1225 -0.2007
    1DPPC   C3B  335  14.505  20.608   4.968 -0.0232 -0.0630 -0.3278
    1DPPC   C4B  336  14.524  20.823   4.508 -0.2965 -0.0912  0.4413
    1DPPC   NC3  337  12.795  15.739   7.077  0.2762  0.0027  0.0449
    1DPPC   PO4  338  13.077  15.541   6.811  0.4056 -0.0553 -0.0394
    1DPPC   GL1  339  13.108  15.587   6.433 -0.0239  0.0098 -0.0387
    1DPPC   GL2  340  13.129  15.312   6.273 -0.1902  0.0335  0.1615
    1DPPC   C1A  341  12.941  15.820   6.066 -0.2267 -0.0127  0.0414
    1DPPC   C2A  342  12.876  15.983   5.749  0.0859  0.2463 -0.1501
    1DPPC   C3A  343  12.928  16.018   5.318  0.2087 -0.0254 -0.3688
    1DPPC   C4A  344  13.054  16.196   4.832 -0.0591 -0.2028  0.2296
    1DPPC   C1B  345  12.917  15.238   5.841  0.1985 -0.0170  0.2050
    1DPPC   C2B  346  13.094  15.442   5.477 -0.3268 -0.0155 -0.1191
    1DPPC   C3B  347  13.051  15.615   5.049 -0.0513  0.3059 -0.0810
    1DPPC   C4B  348  13.067  15.745   4.687 -0.1364 -0.1439 -0.4073
    1DPPC   NC3  349  25.548  19.156   6.357 -0.1142  0.0479 -0.0230
    1DPPC   PO4  350  25.256  18.792   6.381  0.0010 -0.2177  0.1289
    1DPPC   GL1  351  25.403  18.913   5.903 -0.0291  0.3035 -0.3063
    1DPPC   GL2  352  25.710  18.818   5.991 -0.0386  0.1321 -0.1424
    1DPPC   C1A  353  25.256  19.084   5.556 -0.2039 -0.2688  0.4724
    1DPPC   C2A  354  25.090  19.209   5.218  0.2217 -0.2186  0.1351
    1DPPC   C3A  355  24.933  19.114   4.893  0.1818  0.0489 -0.1414
    1DPPC   C4A  356  24.762  19.226   4.434 -0.1049  0.3748  0.0478
    1DPPC   C1B  357  25.815  19.020   5.605 -0.1970  0.4724 -0.1184
    1DPPC   C2B  358  25.707  19.105   5.205 -0.0583 -0.0946  0.2556
    1DPPC   C3B  359  25.475  19.225   4.810  0.0621 -0.0176 -0.1525
    1DPPC   C4B  360  25.199  19.027   4.496 -0.0598  0.1551 -0.4109
    1DPPC   NC3  361  10.921  15.794   6.718 -0.4445  0.0893  0.1588
    1DPPC   PO4  362  11.144  15.388   7.007 -0.2262 -0.1405 -0.0698
    1DPPC   GL1  363  11.269  15.445   6.554 -0.0097  0.0298 -0.3740
    1DPPC   GL2  364  11.566  15.431   6.413  0.4998  0.0540 -0.0767
    1DPPC   C1A  365  11.209  15.371   6.106 -0.2374 -0.0469 -0.4110
    1DPPC   C2A  366  11.202  15.131   5.899 -0.0483  0.1184 -0.3408
    1DPPC   C3A  367  11.326  15.008   5.397 -0.2309  0.2812  0.1402
    1DPPC   C4A  368  11.463  14.992   4.961  0.2752  0.0330  0.1124
    1DPPC   C1B  369  11.769  15.379   6.101  0.1969  0.1169 -0.2564
    1DPPC   C2B  370  11.724  15.219   5.684 -0.1963 -0.2497 -0.1482
    1DPPC   C3B  371  11.809  15.062   5.337 -0.2514 -0.1216 -0.0201
    1DPPC   C4B  372  11.920  15.264   4.916  0.1097 -0.0465  0.0287
    1DPPC   NC3  373  14.742  12.970   6.784  0.2166 -0.0832  0.2325
    1DPPC   PO4  374  14.675  12.523   6.650 -0.1797  0.1871 -0.0421
    1DPPC   GL1  375  14.719  12.343   6.242 -0.1121 -0.0227  0.0643
    1DPPC   GL2  376  14.361  12.383   6.133  0.1604 -0.1037  0.0736
    1DPPC   C1A  377  14.883  12.262   5.975 -0.0792  0.0867  0.1428
    1DPPC   C2A  378  14.789  12.257   5.580 -0.0206  0.2023 -0.0562
    1DPPC   C3A  379  14.783  12.141   5.193 -0.0287  0.0176  0.0528
    1DPPC   C4A  380  14.992  12.248   4.827  0.0790 -0.0445 -0.1298
    1DPPC   C1B  381  14.271  12.372   5.746  0.1328  0.1358  0.0376
    1DPPC   C2B  382  14.252  12.375   5.326  0.1363 -0.2610 -0.1593
    1DPPC   C3B  383  14.488  12.516   4.944 -0.3024 -0.0742  0.0239
    1DPPC   C4B  384  14.243  12.581   4.526  0.0804 -0.2756 -0.0998
    1DPPC   NC3  385  19.952  16.188   7.421  0.1317 -0.2037  0.0124
    1DPPC   PO4  386  20.025  16.563   7.101 -0.1832 -0.2555  0.0872
    1DPPC   GL1  387  19.845  16.447   6.738 -0.0466  0.0786 -0.1741
    1DPPC   GL2  388  19.660  16.227   6.471 -0.1619  0.2527  0.0009
    1DPPC   C1A  389  20.007  16.433   6.241  0.1032  0.1087  0.1404
    1DPPC   C2A  390  20.152  16.482   5.830 -0.1821  0.0785 -0.0322
    1DPPC   C3A  391  20.196  16.532   5.403 -0.3307  0.0766 -0.2615
    1DPPC   C4A  392  20.266  16.494   5.025 -0.0184  0.1514  0.1536
    1DPPC   C1B  393  19.702  16.205   6.005 -0.0309 -0.0128 -0.0723
    1DPPC   C2B  394  19.686  16.288   5.582 -0.1046 -0.0164 -0.1795
    1DPPC   C3B  395  19.707  16.394   5.176  0.0505 -0.0685 -0.0958
    1DPPC   C4B  396  19.668  16.471   4.751 -0.3685  0.2262  0.3502
    1DPPC   NC3  397  15.911  15.122   6.721 -0.2114 -0.1660  0.0875
    1DPPC   PO4  398  16.216  15.390   6.534  0.1183 -0.0564 -0.2949
    1DPPC   GL1  399  16.121  15.688   6.244  0.1300  0.0136 -0.1324
    1DPPC   GL2  400  16.430  15.684   6.179  0.5028 -0.0549  0.1198
    1DPPC   C1A  401  15.846  15.678   5.961  0.0175  0.0873  0.3608
    1DPPC   C2A  402  15.901  15.680   5.514  0.3889  0.1756 -0.2497
    1DPPC   C3A  403  15.969  15.758   5.025 -0.1532  0.0533 -0.0747
    1DPPC   C4A  404  16.107  15.698   4.596 -0.0224  0.0644  0.1147
    1DPPC   C1B  405  16.339  15.809   5.762  0.2150 -0.1422  0.0182
    1DPPC   C2B  406  16.398  15.892   5.410  0.1982 -0.1578 -0.2405
    1DPPC   C3B  407  16.499  15.827   4.932 -0.2863  0.1721  0.0707
    1DPPC   C4B  408  16.681  15.972   4.652 -0.0652 -0.0524  0.0250
    1DPPC   NC3  409  13.217  16.416   6.692  0.1730 -0.2613  0.0960
    1DPPC   PO4  410  13.366  16.050   6.868 -0.3457  0.1475  0.0693
    1DPPC   GL1  411  13.451  15.918   6.421  0.1799 -0.2426 -0.2207
    1DPPC   GL2  412  13.569  16.219   6.329  0.0249 -0.0776 -0.4251
    1DPPC   C1A  413  13.433  15.895   5.900 -0.0253  0.0737 -0.1275
    1DPPC   C2A  414  13.388  15.838   5.489 -0.3274 -0.2754 -0.0215
    1DPPC   C3A  415  13.434  15.925   5.055 -0.0228 -0.0179 -0.0941
    1DPPC   C4A  416  13.603  16.128   4.743 -0.3329 -0.2258 -0.1422
    1DPPC   C1B  417  13.633  16.420   5.909  0.0243 -0.0836 -0.2656
    1DPPC   C2B  418  13.679  16.363   5.475  0.1760 -0.1055  0.1979
    1DPPC   C3B  419  13.920  16.386   5.027  0.0995  0.1675 -0.0333
    1DPPC   C4B  420  14.132  16.187   4.681 -0.2149  0.1444 -0.1500
    1DPPC   NC3  421  11.435  15.650   7.300  0.0941  0.0673  0.0779
    1DPPC   PO4  422  11.447  15.853   6.828 -0.0841  0.2527 -0.1206
    1DPPC   GL1  423  11.504  15.916   6.407 -0.0102  0.0487 -0.4288
    1DPPC   GL2  424  11.246  15.823   6.233  0.1771  0.1168  0.1717
    1DPPC   C1A  425  11.626  16.170   5.947  0.1870  0.0391 -0.1393
    1DPPC   C2A  426  11.655  16.135   5.608  0.1112 -0.0845 -0.1959
    1DPPC   C3A  427  11.610  15.961   5.280 -0.2113  0.1566 -0.1181
    1DPPC   C4A  428  11.669  15.956   4.832 -0.2990  0.1313  0.0856
    1DPPC   C1B  429  11.399  15.766   5.827  0.1074 -0.2821 -0.4118
    1DPPC   C2B  430  11.422  15.523   5.488  0.2273 -0.1725  0.2050
    1DPPC   C3B  431  11.481  15.542   5.052 -0.2227  0.1045 -0.1914
    1DPPC   C4B  432  11.456  15.441   4.624 -0.0783  0.0010  0.1248
    1DPPC   NC3  433   7.759  15.542   6.193 -0.0153 -0.3215  0.4201
    1DPPC   PO4  434   8.210  15.605   6.431  0.2319 -0.0540  0.1360
    1DPPC   GL1  435   8.246  15.256   6.096  0.0820  0.1331  0.2314
    1DPPC   GL2  436   8.493  15.078   6.111  0.0172 -0.0249 -0.0432
    1DPPC   C1A  437   8.102  15.032   5.727  0.2304 -0.0686 -0.0400
    1DPPC   C2A  438   7.801  15.190   5.338  0.0980  0.5012  0.2440
    1DPPC   C3A  439   7.482  15.520   5.397 -0.0003  0.0769  0.0234
    1DPPC   C4A  440   7.387  15.976   5.416 -0.0956  0.1906 -0.0277
    1DPPC   C1B  441   8.558  14.892   5.723 -0.0121  0.2140  0.1137
    1DPPC   C2B  442   8.379  14.989   5.340 -0.1589  0.1200 -0.0615
    1DPPC   C3B  443   8.217  15.068   5.003  0.1031 -0.2304 -0.0588
    1DPPC   C4B  444   7.830  15.160   4.760 -0.3371 -0.1384  0.2067
    1DPPC   NC3  445  15.469  18.421   7.318  0.1298  0.3510  0.0011
    1DPPC   PO4  446  15.261  18.438   6.997  0.0485  0.1947  0.1018
    1DPPC   GL1  447  15.400  18.676   6.638  0.1726 -0.3533  0.1297
    1DPPC   GL2  448  15.592  18.480   6.474 -0.0571 -0.1507 -0.1943
    1DPPC   C1A  449  15.325  18.960   6.257 -0.0249 -0.3909 -0.0469
    1DPPC   C2A  450  15.408  18.971   5.844  0.0776 -0.2062  0.1148
    1DPPC   C3A  451  15.517  18.999   5.433 -0.0705 -0.1074 -0.1468
    1DPPC   C4A  452  15.631  19.011   5.025 -0.0309 -0.1912  0.0584
    1DPPC   C1B  453  15.519  18.558   6.057 -0.0276  0.3039  0.0566
    1DPPC   C2B  454  15.543  18.536   5.653 -0.1325  0.1110 -0.0552
    1DPPC   C3B  455  15.560  18.482   5.204  0.1780  0.1232 -0.1489
    1DPPC   C4B  456  15.300  18.500   4.849 -0.0082 -0.0859 -0.0033
    1DPPC   NC3  457  19.694  13.246   6.714 -0.1204  0.1479  0.3470
    1DPPC   PO4  458  19.902  12.868   6.508 -0.1125  0.1359  0.2439
    1DPPC   GL1  459  20.046  13.019   6.030  0.2372  0.0758 -0.0732
    1DPPC   GL2  460  20.357  13.144   5.999  0.4414  0.0422  0.2178
    1DPPC   C1A  461  20.005  13.205   5.661  0.0515  0.3691  0.2242
    1DPPC   C2A  462  20.054  13.298   5.243  0.1598 -0.0046  0.1696
    1DPPC   C3A  463  19.932  13.257   4.839  0.1878 -0.0494  0.0487
    1DPPC   C4A  464  20.063  13.534   4.506 -0.3223  0.1140  0.0740
    1DPPC   C1B  465  20.492  13.131   5.536  0.0025 -0.0541 -0.1359
    1DPPC   C2B  466  20.499  13.035   5.170  0.0056  0.0091  0.2208
    1DPPC   C3B  467  20.413  13.080   4.741 -0.0358  0.1557  0.0706
    1DPPC   C4B  468  20.221  13.093   4.364 -0.1593  0.0513 -0.0293
    1DPPC   NC3  469  16.786  14.336   7.109 -0.1103  0.3104  0.0445
    1DPPC   PO4  470  16.950  13.947   6.940  0.0826  0.0946 -0.1299
    1DPPC   GL1  471  17.030  13.985   6.473 -0.2911  0.0368  0.2380
    1DPPC   GL2  472  17.104  14.201   6.324  0.2831  0.1022  0.1923
    1DPPC   C1A  473  17.006  13.752   6.128 -0.1016 -0.1178  0.0343
    1DPPC   C2A  474  16.921  13.391   5.900  0.0913  0.1595  0.2399
    1DPPC   C3A  475  17.154  13.255   5.496 -0.0781 -0.1256 -0.1484
    1DPPC   C4A  476  17.251  13.219   5.087  0.0015  0.1339 -0.1910
    1DPPC   C1B  477  17.248  14.185   5.947 -0.0329 -0.1409  0.1659
    1DPPC   C2B  478  17.264  14.166   5.537 -0.2382 -0.1162 -0.0089
    1DPPC   C3B  479  17.098  14.214   5.257  0.2495 -0.2387 -0.1968
    1DPPC   C4B  480  17.197  14.099   4.852 -0.1605  0.0854 -0.1531
    1DPPC   NC3  481  18.563  22.241   7.370  0.0203 -0.0984  0.0085
    1DPPC   PO4  482  18.819  21.979   7.206 -0.2807 -0.1120  0.0748
    1DPPC   GL1  483  18.714  22.035   6.775 -0.2157 -0.2316 -0.1362
    1DPPC   GL2  484  18.953  21.846   6.594  0.1123 -0.0442 -0.0331
    1DPPC   C1A  485  18.566  22.132   6.322 -0.2875  0.1710 -0.1312
    1DPPC   C2A  486  18.636  22.229   5.912  0.1344 -0.0802 -0.3277
    1DPPC   C3A  487  18.688  22.271   5.505  0.0475  0.1292 -0.1014
    1DPPC   C4A  488  18.490  22.085   5.187  0.1239 -0.0323 -0.0012
    1DPPC   C1B  489  18.971  21.861   6.168 -0.2519 -0.3218  0.2310
    1DPPC   C2B  490  18.957  21.928   5.744 -0.1883 -0.1468 -0.6367
    1DPPC   C3B  491  18.961  21.880   5.284  0.1066 -0.0214 -0.0863
    1DPPC   C4B  492  18.993  21.797   4.866  0.0499 -0.0738 -0.2380
    1DPPC   NC3  493  22.878  26.766   6.636 -0.0290  0.0104  0.1568
    1DPPC   PO4  494  22.421  26.941   6.528 -0.4062  0.2840  0.0065
    1DPPC   GL1  495  22.366  26.897   6.115  0.3538 -0.2404 -0.1328
    1DPPC   GL2  496  22.198  27.204   6.078 -0.1726 -0.1485  0.0719
    1DPPC   C1A  497  22.596  26.845   5.638  0.2125 -0.1224 -0.0783
    1DPPC   C2A  498  22.899  27.158   5.413 -0.0026 -0.2443  0.0629
    1DPPC   C3A  499  22.866  27.549   5.107  0.1563 -0.0753  0.2100
    1DPPC   C4A  500  22.579  27.826   5.073  0.0483 -0.2878 -0.0052
    1DPPC   C1B  501  22.385  27.288   5.719 -0.0554 -0.1185 -0.2655
    1DPPC   C2B  502  22.420  27.446   5.436  0.1268  0.0252 -0.3348
    1DPPC   C3B  503  22.141  27.492   5.066 -0.0381  0.0466  0.1176
    1DPPC   C4B  504  21.737  27.266   4.981  0.0897 -0.1441  0.2745
    1DPPC   NC3  505  15.833  15.754   6.644 -0.0089  0.1819  0.1665
    1DPPC   PO4  506  15.336  15.814   6.830 -0.2809 -0.1748  0.0418
    1DPPC   GL1  507  15.245  15.797   6.460  0.1352  0.0735 -0.2107
    1DPPC   GL2  508  15.048  16.127   6.335  0.1214  0.1411  0.2038
    1DPPC   C1A  509  15.275  15.629   6.063 -0.0119 -0.1828  0.1739
    1DPPC   C2A  510  15.356  15.653   5.622 -0.0818  0.1104  0.4700
    1DPPC   C3A  511  15.445  15.711   5.194  0.2205 -0.0780 -0.1796
    1DPPC   C4A  512  15.553  15.636   4.734  0.2400 -0.0105 -0.1108
    1DPPC   C1B  513  15.012  16.098   6.002 -0.1253 -0.0708 -0.0927
    1DPPC   C2B  514  15.007  16.063   5.548  0.2538  0.3758  0.2684
    1DPPC   C3B  515  15.153  16.127   5.130 -0.1748 -0.0268 -0.0467
    1DPPC   C4B  516  15.149  15.871   4.779  0.1252  0.0064 -0.0393
    1DPPC   NC3  517  20.045  17.630   6.658 -0.3151  0.0137  0.0983
    1DPPC   PO4  518  20.556  17.609   6.751  0.0494 -0.1782  0.2265
    1DPPC   GL1  519  20.512  18.099   6.545 -0.1190 -0.3820 -0.0459
    1DPPC   GL2  520  20.210  18.137   6.598 -0.0943  0.0283  0.3918
    1DPPC   C1A  521  20.488  18.348   6.172 -0.0709 -0.2039 -0.3476
    1DPPC   C2A  522  20.386  18.380   5.938  0.1449 -0.5031  0.0316
    1DPPC   C3A  523  20.418  18.509   5.517  0.0622  0.1113  0.0924
    1DPPC   C4A  524  20.441  18.386   5.084 -0.4654  0.1818  0.0292
    1DPPC   C1B  525  20.005  18.251   6.215  0.1897 -0.0522  0.0449
    1DPPC   C2B  526  19.972  18.224   5.814 -0.2475 -0.0588  0.2547
    1DPPC   C3B  527  19.921  18.306   5.357 -0.1836 -0.2648  0.1914
    1DPPC   C4B  528  19.953  18.562   5.046  0.0162  0.0516  0.0547
    1DPPC   NC3  529  13.010  16.757   7.125 -0.0443 -0.1407 -0.0940
    1DPPC   PO4  530  12.762  16.690   6.734  0.0491 -0.0754  0.0148
    1DPPC   GL1  531  13.033  16.599   6.291  0.1982  0.1312 -0.0932
    1DPPC   GL2  532  13.119  16.300   6.135  0.1221  0.1639  0.0025
    1DPPC   C1A  533  13.234  16.764   5.885 -0.1311 -0.0002 -0.0436
    1DPPC   C2A  534  13.301  16.814   5.484  0.0010  0.4252 -0.1164
    1DPPC   C3A  535  13.094  16.933   5.008 -0.1187  0.2712  0.0639
    1DPPC   C4A  536  13.165  16.724   4.645  0.2331 -0.2664  0.0420
    1DPPC   C1B  537  13.218  16.266   5.656 -0.0268  0.1050 -0.0942
    1DPPC   C2B  538  13.160  16.453   5.201 -0.1397 -0.0570 -0.0291
    1DPPC   C3B  539  13.517  16.683   5.056  0.1248  0.1963  0.0526
    1DPPC   C4B  540  13.689  16.706   4.620  0.1000  0.0256  0.0188
    1DPPC   NC3  541  13.852  18.628   7.056  0.0687  0.0887 -0.0989
    1DPPC   PO4  542  14.089  18.624   6.724 -0.0480  0.0960 -0.0853
    1DPPC   GL1  543  14.100  18.819   6.356  0.3515  0.0029  0.1044
    1DPPC   GL2  544  14.043  19.216   6.237 -0.1860  0.4469  0.0986
    1DPPC   C1A  545  14.042  18.864   5.874 -0.2323  0.2338 -0.0022
    1DPPC   C2A  546  14.182  18.807   5.492 -0.3514 -0.0657  0.1258
    1DPPC   C3A  547  14.011  18.727   5.086  0.2108 -0.0721  0.0258
    1DPPC   C4A  548  14.092  18.652   4.634 -0.1796 -0.0361 -0.2621
    1DPPC   C1B  549  13.903  19.323   5.967 -0.3918  0.1701  0.1558
    1DPPC   C2B  550  14.021  19.281   5.573 -0.0452  0.0262 -0.1395
    1DPPC   C3B  551  14.177  19.226   5.091  0.0648  0.1173  0.1209
    1DPPC   C4B  552  14.143  19.198   4.630  0.3207 -0.1014 -0.1774
    1DPPC   NC3  553  12.025  13.847   7.404 -0.0277  0.0749  0.1317
    1DPPC   PO4  554  11.816  13.678   7.054  0.1534  0.2413  0.0782
    1DPPC   GL1  555  11.944  13.709   6.664 -0.1615  0.2831  0.0932
    1DPPC   GL2  556  12.024  13.424   6.560 -0.1045  0.0728 -0.0554
    1DPPC   C1A  557  11.739  13.878   6.311 -0.0244  0.3763 -0.0586
    1DPPC   C2A  558  11.604  14.063   5.958 -0.0155 -0.4003  0.0728
    1DPPC   C3A  559  11.528  14.085   5.422 -0.3785 -0.1765 -0.1654
    1DPPC   C4A  560  11.404  13.941   5.044  0.3384  0.0292 -0.0770
    1DPPC   C1B  561  11.891  13.469   6.111 -0.0535  0.2069  0.0181
    1DPPC   C2B  562  11.861  13.721   5.695 -0.3329  0.1063  0.1193
    1DPPC   C3B  563  11.762  13.681   5.293 -0.3273 -0.4378 -0.0518
    1DPPC   C4B  564  11.920  13.653   4.964 -0.4060 -0.0080 -0.0687
    1DPPC   NC3  565  12.321  16.921   6.680 -0.1313  0.0399 -0.0776
    1DPPC   PO4  566  11.968  16.704   6.647  0.0697 -0.1851  0.3240
    1DPPC   GL1  567  12.100  16.722   6.212  0.0108  0.0173 -0.1212
    1DPPC   GL2  568  12.042  16.407   6.228  0.1831  0.3826 -0.2349
    1DPPC   C1A  569  12.232  16.784   5.837 -0.0372 -0.1425  0.0897
    1DPPC   C2A  570  12.180  16.811   5.426  0.1058  0.0060 -0.2004
    1DPPC   C3A  571  12.158  16.788   4.998 -0.0913 -0.0198  0.3519
    1DPPC   C4A  572  12.093  16.932   4.604  0.0087 -0.0703  0.0935
    1DPPC   C1B  573  12.159  16.204   5.835  0.1174  0.0678  0.0201
    1DPPC   C2B  574  12.095  16.364   5.392  0.0262  0.2657  0.1157
    1DPPC   C3B  575  12.056  16.225   5.051 -0.2818 -0.0446 -0.2426
    1DPPC   C4B  576  11.926  16.375   4.754 -0.1246 -0.0277 -0.1922
    1DPPC   NC3  577   7.357  11.487   6.980  0.0288  0.0787  0.1171
    1DPPC   PO4  578   7.455  11.062   7.175 -0.0827 -0.1437 -0.0566
    1DPPC   GL1  579   7.625  11.171   6.755  0.1149 -0.1911  0.1154
    1DPPC   GL2  580   7.558  11.431   6.528  0.2625  0.1248  0.1926
    1DPPC   C1A  581   7.720  10.881   6.539  0.5798  0.1605  0.0261
    1DPPC   C2A  582   7.869  10.599   6.190  0.2742 -0.1658 -0.1090
    1DPPC   C3A  583   8.338  10.394   6.069  0.0581  0.0433 -0.1142
    1DPPC   C4A  584   8.491   9.985   5.799 -0.0091 -0.1298  0.2301
    1DPPC   C1B  585   7.489  11.607   6.180  0.1217  0.2958 -0.3554
    1DPPC   C2B  586   7.364  11.366   5.797 -0.0106  0.1890 -0.2588
    1DPPC   C3B  587   7.203  11.552   5.339  0.1424 -0.1568 -0.1406
    1DPPC   C4B  588   7.332  11.902   5.070 -0.0367  0.0968  0.3643
    1DPPC   NC3  589  15.220  16.974   6.738  0.0414  0.2393  0.1747
    1DPPC   PO4  590  14.875  17.118   6.636  0.5125 -0.0459  0.1269
    1DPPC   GL1  591  15.106  17.274   6.339 -0.0237 -0.1725 -0.0369
    1DPPC   GL2  592  15.293  17.082   6.249  0.2738  0.1714  0.0891
    1DPPC   C1A  593  15.237  17.524   5.961  0.1226  0.2007 -0.1681
    1DPPC   C2A  594  15.313  17.517   5.533  0.1671  0.2268 -0.2329
    1DPPC   C3A  595  15.334  17.587   5.094  0.0249  0.0699  0.0812
    1DPPC   C4A  596  15.351  17.759   4.708 -0.1559  0.0378  0.1087
    1DPPC   C1B  597  15.408  16.965   5.768 -0.1581  0.1168 -0.2468
    1DPPC   C2B  598  15.516  17.159   5.321  0.2203  0.0422 -0.0192
    1DPPC   C3B  599  15.726  17.315   4.938 -0.0850  0.0424  0.1259
    1DPPC   C4B  600  15.799  17.369   4.458 -0.1395 -0.2572  0.1320
    1DPPC   NC3  601  22.229  16.187   6.811 -0.2133  0.2316  0.3490
    1DPPC   PO4  602  22.225  15.940   6.429  0.0054  0.1250  0.3882
    1DPPC   GL1  603  22.096  16.021   6.034 -0.0546 -0.2187  0.0536
    1DPPC   GL2  604  22.026  16.316   6.008  0.4113 -0.3284  0.0796
    1DPPC   C1A  605  22.276  16.003   5.662  0.1391  0.2592  0.1364
    1DPPC   C2A  606  22.403  15.797   5.236  0.0099  0.0884 -0.1095
    1DPPC   C3A  607  22.203  15.710   4.827 -0.1077  0.1066  0.0752
    1DPPC   C4A  608  22.230  15.443   4.463  0.1894 -0.0474  0.0125
    1DPPC   C1B  609  22.077  16.506   5.587 -0.1602  0.1290  0.1157
    1DPPC   C2B  610  22.213  16.333   5.273 -0.0012  0.0686  0.2351
    1DPPC   C3B  611  22.391  16.146   4.919 -0.2480 -0.1334  0.0937
    1DPPC   C4B  612  22.444  16.289   4.535 -0.0465  0.1213  0.1675
    1DPPC   NC3  613  19.073  11.777   6.139  0.0811 -0.1956 -0.0096
    1DPPC   PO4  614  18.959  11.432   6.299 -0.1757 -0.1701 -0.0839
    1DPPC   GL1  615  18.999  11.336   5.861 -0.0722  0.0016  0.1490
    1DPPC   GL2  616  19.324  11.530   5.761  0.0524  0.4576 -0.2354
    1DPPC   C1A  617  18.944  11.456   5.378 -0.0457 -0.0582 -0.2112
    1DPPC   C2A  618  19.019  11.510   4.964  0.0577 -0.0905  0.0256
    1DPPC   C3A  619  19.117  11.369   4.644  0.1693 -0.0825  0.1428
    1DPPC   C4A  620  19.488  11.399   4.434  0.0954 -0.1185  0.0561
    1DPPC   C1B  621  19.446  11.684   5.323 -0.2674 -0.1116  0.1304
    1DPPC   C2B  622  19.541  11.697   4.854  0.2302  0.2154 -0.1123
    1DPPC   C3B  623  19.850  11.730   4.420 -0.1846  0.2880  0.1337
    1DPPC   C4B  624  20.080  11.743   4.058  0.0371  0.2918  0.1530
    1DPPC   NC3  625  13.665  11.538   6.698 -0.0449  0.0507 -0.0288
    1DPPC   PO4  626  13.284  11.160   6.775 -0.0351 -0.2526  0.1456
    1DPPC   GL1  627  13.087  11.313   6.495 -0.0359 -0.1075  0.1594
    1DPPC   GL2  628  12.826  11.415   6.541  0.1386 -0.2329 -0.0753
    1DPPC   C1A  629  13.085  11.359   6.074  0.0981 -0.1013 -0.0904
    1DPPC   C2A  630  12.967  11.344   5.717  0.3366  0.2691 -0.1428
    1DPPC   C3A  631  12.632  11.381   5.351 -0.2225  0.2343 -0.1595
    1DPPC   C4A  632  12.276  11.357   4.975  0.0031  0.2334  0.0810
    1DPPC   C1B  633  12.516  11.384   6.257 -0.2277  0.3678 -0.2351
    1DPPC   C2B  634  12.440  11.261   5.830 -0.0788  0.1168 -0.1221
    1DPPC   C3B  635  12.540  10.956   5.539  0.1655 -0.0278 -0.0299
    1DPPC   C4B  636  12.375  10.864   5.164 -0.1046 -0.2718 -0.2226
    1DPPC   NC3  637  10.271  13.042   7.291  0.0794  0.2960  0.2645
    1DPPC   PO4  638  10.468  12.581   7.309 -0.1545 -0.0720  0.0873
    1DPPC   GL1  639  10.501  12.467   6.847  0.3000  0.3399  0.0301
    1DPPC   GL2  640  10.311  12.661   6.734  0.1366 -0.1190 -0.1289
    1DPPC   C1A  641  10.323  12.155   6.553 -0.1109 -0.1848 -0.0620
    1DPPC   C2A  642  10.451  12.158   6.140  0.2706  0.2319 -0.1695
    1DPPC   C3A  643  10.532  12.131   5.692 -0.1075  0.1529 -0.1089
    1DPPC   C4A  644  10.972  12.099   5.536  0.1506  0.1762 -0.1009
    1DPPC   C1B  645  10.528  12.632   6.354  0.2613 -0.0505  0.0341
    1DPPC   C2B  646  10.538  12.716   5.800  0.1470 -0.0092  0.0012
    1DPPC   C3B  647  10.527  12.811   5.407  0.1761  0.0329  0.1162
    1DPPC   C4B  648  10.400  12.892   4.997 -0.1617 -0.2092 -0.0484
    1DPPC   NC3  649   4.015   7.664   6.614  0.0679  0.0114  0.0486
    1DPPC   PO4  650   4.206   7.385   6.606 -0.0133 -0.3833 -0.0988
    1DPPC   GL1  651   4.203   6.958   6.518 -0.0669  0.1849 -0.0945
    1DPPC   GL2  652   4.223   6.975   6.164 -0.0197 -0.1290  0.1195
    1DPPC   C1A  653   3.779   6.815   6.330 -0.1349 -0.2173 -0.1617
    1DPPC   C2A  654   3.476   6.736   5.963  0.2637 -0.0992  0.0939
    1DPPC   C3A  655   3.477   7.071   5.713  0.0670  0.0641 -0.2801
    1DPPC   C4A  656   3.417   7.419   5.408  0.2225 -0.1384 -0.1733
    1DPPC   C1B  657   3.981   6.748   5.798  0.1436  0.2035 -0.0076
    1DPPC   C2B  658   4.006   6.709   5.379 -0.1503  0.0460  0.1241
    1DPPC   C3B  659   4.306   6.618   5.098  0.2289 -0.0137  0.2024
    1DPPC   C4B  660   4.593   6.200   4.951  0.1089 -0.5583  0.0050
    1DPPC   NC3  661  20.316  14.556   6.019 -0.2475 -0.3296  0.3402
    1DPPC   PO4  662  20.673  14.756   6.173 -0.0742 -0.2946 -0.2536
    1DPPC   GL1  663  20.727  14.631   5.681  0.0475  0.3995 -0.1861
    1DPPC   GL2  664  20.418  14.563   5.529 -0.0681  0.0133 -0.1453
    1DPPC   C1A  665  20.856  14.687   5.165  0.1484 -0.2070 -0.1160
    1DPPC   C2A  666  20.833  14.815   4.762 -0.0192  0.1514  0.1929
    1DPPC   C3A  667  21.049  14.852   4.401  0.2076  0.2314  0.0869
    1DPPC   C4A  668  21.412  14.753   4.324 -0.0572  0.0870 -0.2096
    1DPPC   C1B  669  20.426  14.638   5.008  0.3063 -0.0983 -0.1762
    1DPPC   C2B  670  20.490  14.478   4.601 -0.0624  0.0183 -0.3518
    1DPPC   C3B  671  20.799  14.460   4.391 -0.0222  0.4334 -0.3807
    1DPPC   C4B  672  21.186  14.311   4.250 -0.0983 -0.2132 -0.0141
    1DPPC   NC3  673  19.437   9.379   6.343 -0.0369  0.0322  0.0099
    1DPPC   PO4  674  19.564   8.924   6.232 -0.0518 -0.0460 -0.0174
    1DPPC   GL1  675  19.787   8.832   5.989 -0.2919  0.0551  0.2611
    1DPPC   GL2  676  20.105   8.574   6.003 -0.0341  0.1043  0.0631
    1DPPC   C1A  677  19.727   8.779   5.510 -0.2118 -0.0439 -0.0015
    1DPPC   C2A  678  19.608   8.937   5.154 -0.2048  0.1264 -0.0192
    1DPPC   C3A  679  19.526   8.939   4.744  0.0767  0.0327 -0.1363
    1DPPC   C4A  680  19.635   9.165   4.349 -0.1374 -0.0015  0.0370
    1DPPC   C1B  681  20.182   8.426   5.566 -0.2904 -0.2381  0.2648
    1DPPC   C2B  682  20.173   8.309   5.218 -0.3046 -0.2398 -0.1463
    1DPPC   C3B  683  20.323   8.092   4.851 -0.0900  0.4047  0.0116
    1DPPC   C4B  684  20.597   7.987   4.466 -0.1163  0.1043  0.0526
    1DPPC   NC3  685   1.793  15.166   5.989  0.1459 -0.1815 -0.2129
    1DPPC   PO4  686   2.092  14.837   5.698  0.0272 -0.1560 -0.0464
    1DPPC   GL1  687   1.885  14.586   5.404  0.0494 -0.2955  0.3076
    1DPPC   GL2  688   1.610  14.775   5.284  0.0681 -0.1556  0.0833
    1DPPC   C1A  689   1.668  14.494   4.928  0.1949 -0.1725  0.1885
    1DPPC   C2A  690   1.615  14.260   4.545  0.1790 -0.1069 -0.2753
    1DPPC   C3A  691   1.593  14.023   4.198  0.0776 -0.1704  0.1212
    1DPPC   C4A  692   1.917  13.904   3.894 -0.1684  0.1908  0.0009
    1DPPC   C1B  693   1.509  14.929   4.873  0.1574 -0.2116  0.1435
    1DPPC   C2B  694   1.629  15.230   4.597 -0.1835 -0.0023 -0.1259
    1DPPC   C3B  695   1.626  15.702   4.639 -0.1946  0.3145 -0.0322
    1DPPC   C4B  696   1.437  16.001   4.790 -0.0711  0.1442  0.1830
    1DPPC   NC3  697  15.301  21.564   6.853 -0.0931 -0.0096 -0.1113
    1DPPC   PO4  698  15.580  21.553   6.483 -0.0955  0.0783  0.3184
    1DPPC   GL1  699  15.420  21.326   6.127  0.2936  0.1429  0.1121
    1DPPC   GL2  700  15.455  21.490   5.914  0.2279  0.0709 -0.0179
    1DPPC   C1A  701  15.133  21.055   5.855  0.0947  0.2311  0.1726
    1DPPC   C2A  702  15.025  20.810   5.626 -0.0458 -0.3192 -0.4817
    1DPPC   C3A  703  14.953  20.883   5.200  0.1561  0.1394  0.0873
    1DPPC   C4A  704  14.786  21.095   4.844 -0.0424 -0.1278 -0.2241
    1DPPC   C1B  705  15.552  21.475   5.606 -0.0737 -0.0850  0.1960
    1DPPC   C2B  706  15.754  21.468   5.210 -0.0770 -0.4123 -0.1348
    1DPPC   C3B  707  15.777  21.352   4.801  0.1599  0.0350  0.0512
    1DPPC   C4B  708  15.680  20.951   4.530  0.0224 -0.0206  0.0205
    1DPPC   NC3  709  20.518  10.432   6.027 -0.1719  0.0616  0.3572
    1DPPC   PO4  710  20.734  10.100   6.134  0.1076  0.1745  0.0279
    1DPPC   GL1  711  20.982   9.962   5.796  0.0872  0.1355  0.1238
    1DPPC   GL2  712  21.084  10.196   5.643  0.1793  0.2622  0.2515
    1DPPC   C1A  713  20.957   9.673   5.444  0.2987 -0.1194  0.0704
    1DPPC   C2A  714  21.063   9.602   5.052  0.0832  0.1683 -0.2446
    1DPPC   C3A  715  21.481   9.619   4.827  0.0384 -0.1290  0.0058
    1DPPC   C4A  716  21.875   9.623   4.609 -0.3052  0.1283 -0.0493
    1DPPC   C1B  717  21.184  10.270   5.212 -0.2072  0.0311  0.1195
    1DPPC   C2B  718  21.225  10.084   4.816 -0.3227  0.0103  0.4448
    1DPPC   C3B  719  21.078   9.693   4.572  0.1763  0.1993 -0.0666
    1DPPC   C4B  720  21.061   9.282   4.523  0.6067 -0.1401 -0.0051
    1DPPC   NC3  721   5.314  11.867   6.585  0.1074  0.2108 -0.3434
    1DPPC   PO4  722   4.981  11.712   6.138  0.2542  0.0647  0.2827
    1DPPC   GL1  723   4.655  11.604   5.832 -0.0825 -0.0933 -0.1614
    1DPPC   GL2  724   4.420  11.829   5.815  0.2207 -0.2905  0.0613
    1DPPC   C1A  725   4.552  11.452   5.407  0.2107  0.1609 -0.0175
    1DPPC   C2A  726   4.309  11.489   4.990 -0.1007  0.2733 -0.2023
    1DPPC   C3A  727   3.953  11.741   4.932  0.0184 -0.0056  0.0603
    1DPPC   C4A  728   3.670  11.986   4.697 -0.1571 -0.0664  0.2642
    1DPPC   C1B  729   4.247  11.806   5.448  0.0139 -0.2857 -0.0836
    1DPPC   C2B  730   4.348  11.998   5.043 -0.1032  0.0578  0.0369
    1DPPC   C3B  731   4.250  12.074   4.655 -0.1143  0.0649  0.2449
    1DPPC   C4B  732   4.214  12.300   4.223 -0.1922  0.1607  0.0007
    1DPPC   NC3  733  19.675  19.326   7.100 -0.1046  0.2381 -0.0254
    1DPPC   PO4  734  19.723  19.005   6.747  0.2776  0.1118 -0.0027
    1DPPC   GL1  735  19.663  19.300   6.522 -0.0931  0.1328 -0.0589
    1DPPC   GL2  736  19.356  19.183   6.335  0.0928  0.0442  0.3030
    1DPPC   C1A  737  19.782  19.704   6.258  0.2133 -0.0337 -0.4260
    1DPPC   C2A  738  19.881  19.811   5.854 -0.0831  0.1799  0.0549
    1DPPC   C3A  739  19.750  19.829   5.409  0.0853  0.0275  0.3382
    1DPPC   C4A  740  19.423  20.027   5.195  0.3873 -0.6187  0.2037
    1DPPC   C1B  741  19.403  19.046   5.853 -0.3695  0.1573  0.0631
    1DPPC   C2B  742  19.427  19.090   5.465 -0.0269 -0.1577  0.0252
    1DPPC   C3B  743  19.555  18.890   5.118  0.5414  0.1654 -0.0288
    1DPPC   C4B  744  19.439  18.735   4.741  0.0658 -0.1427 -0.1493
    1DPPC   NC3  745  18.642   9.658   6.326 -0.0579 -0.1023  0.1125
    1DPPC   PO4  746  19.049   9.655   6.462  0.0386  0.1851  0.2846
    1DPPC   GL1  747  19.098   9.800   6.059  0.0533  0.2881  0.0716
    1DPPC   GL2  748  19.192   9.511   5.894  0.0145 -0.0509 -0.0504
    1DPPC   C1A  749  19.085  10.047   5.656  0.2161 -0.0327 -0.0380
    1DPPC   C2A  750  19.059  10.054   5.293 -0.2110 -0.1476  0.2977
    1DPPC   C3A  751  19.060   9.989   4.810  0.3821  0.1724  0.0576
    1DPPC   C4A  752  19.241  10.034   4.480 -0.1125  0.0048 -0.1004
    1DPPC   C1B  753  19.279   9.637   5.492 -0.0952  0.0170  0.1548
    1DPPC   C2B  754  19.223   9.572   5.057  0.1407 -0.1614 -0.0768
    1DPPC   C3B  755  19.082   9.499   4.607  0.0030 -0.4524 -0.0829
    1DPPC   C4B  756  19.026   9.630   4.245 -0.1498  0.2866  0.1298
    1DPPC   NC3  757  14.856  19.138   6.987 -0.0864  0.1275  0.0191
    1DPPC   PO4  758  15.241  19.041   6.959 -0.2438 -0.1944 -0.1286
    1DPPC   GL1  759  15.529  19.242   6.600  0.1044 -0.2042  0.0834
    1DPPC   GL2  760  15.724  19.554   6.587  0.0383  0.2018  0.0049
    1DPPC   C1A  761  15.747  19.242   6.171  0.1105  0.1434  0.1495
    1DPPC   C2A  762  15.868  19.248   5.724 -0.0234  0.1586  0.0579
    1DPPC   C3A  763  16.007  19.249   5.371  0.1052 -0.0533  0.0509
    1DPPC   C4A  764  16.274  19.264   4.981 -0.1845  0.2113 -0.1425
    1DPPC   C1B  765  15.648  19.818   6.269 -0.0002 -0.2135  0.3530
    1DPPC   C2B  766  15.767  19.687   5.917  0.0209 -0.2812 -0.1096
    1DPPC   C3B  767  15.793  19.736   5.442  0.0280 -0.0787 -0.0356
    1DPPC   C4B  768  15.724  19.486   5.021  0.2663  0.1111 -0.1449
    1DPPC   NC3  769  16.563  15.897   6.650  0.0504 -0.3799 -0.0060
    1DPPC   PO4  770  17.073  15.990   6.788  0.2366 -0.2620 -0.1205
    1DPPC   GL1  771  17.014  16.085   6.295  0.1373  0.1442 -0.2535
    1DPPC   GL2  772  16.871  15.894   6.117  0.1896  0.4497 -0.0634
    1DPPC   C1A  773  17.058  16.364   5.881 -0.1928  0.0911 -0.2853
    1DPPC   C2A  774  17.102  16.399   5.471  0.0913  0.1435  0.0464
    1DPPC   C3A  775  17.392  16.370   5.087  0.3022  0.1651  0.1357
    1DPPC   C4A  776  17.477  16.388   4.608  0.1462 -0.1598 -0.0957
    1DPPC   C1B  777  16.900  15.889   5.661  0.2574 -0.0464  0.1959
    1DPPC   C2B  778  16.929  15.996   5.182  0.0359  0.0012 -0.1038
    1DPPC   C3B  779  16.970  16.310   4.842  0.0058  0.1765 -0.0294
    1DPPC   C4B  780  16.960  16.648   4.551 -0.1478  0.3232 -0.1470
    1DPPC   NC3  781  12.381  16.133   7.235  0.0659 -0.1984  0.1383
    1DPPC   PO4  782  12.326  15.834   6.885  0.0683  0.1397  0.1112
    1DPPC   GL1  783  12.306  15.887   6.392 -0.0235 -0.2009  0.0834
    1DPPC   GL2  784  12.004  15.837   6.239 -0.0291  0.0235 -0.0385
    1DPPC   C1A  785  12.432  15.779   5.928 -0.0831 -0.2035  0.0709
    1DPPC   C2A  786  12.425  15.927   5.474  0.3285  0.1386  0.0112
    1DPPC   C3A  787  12.556  15.591   5.216  0.3071  0.0242  0.0025
    1DPPC   C4A  788  12.564  15.381   4.925 -0.0160 -0.2723 -0.1020
    1DPPC   C1B  789  11.942  15.709   5.754 -0.0897  0.2729  0.1606
    1DPPC   C2B  790  11.977  15.574   5.341  0.0321  0.0727  0.0127
    1DPPC   C3B  791  12.182  15.743   4.916  0.1024 -0.1539  0.1140
    1DPPC   C4B  792  12.604  15.969   4.880 -0.3149  0.2657  0.3489
    1DPPC   NC3  793  16.159   9.741   6.653  0.1614  0.1963  0.2719
    1DPPC   PO4  794  16.022   9.277   6.611  0.0819  0.0193  0.0551
    1DPPC   GL1  795  15.940   9.181   6.150  0.2793  0.1846  0.0852
    1DPPC   GL2  796  15.711   8.899   6.038 -0.1692 -0.0853 -0.0765
    1DPPC   C1A  797  16.035   9.262   5.709  0.1139  0.0762 -0.0586
    1DPPC   C2A  798  15.912   9.162   5.359 -0.0010 -0.0931 -0.1083
    1DPPC   C3A  799  15.824   9.280   4.900  0.3330 -0.1372 -0.0266
    1DPPC   C4A  800  15.861   9.582   4.573  0.2090  0.0625 -0.0818
    1DPPC   C1B  801  15.575   8.823   5.602  0.2554 -0.0698  0.0308
    1DPPC   C2B  802  15.524   8.750   5.157  0.1677 -0.0163  0.0897
    1DPPC   C3B  803  15.694   8.864   4.684  0.0581 -0.0208  0.0334
    1DPPC   C4B  804  15.688   9.111   4.404 -0.2304  0.2574  0.0543
    1DPPC   NC3  805  14.309  14.016   6.877  0.0113 -0.0862  0.0004
    1DPPC   PO4  806  14.616  13.983   6.628 -0.0280 -0.2547  0.1183
    1DPPC   GL1  807  14.772  14.217   6.259 -0.0397  0.0395  0.0001
    1DPPC   GL2  808  14.670  14.573   6.289  0.1343  0.1251 -0.4448
    1DPPC   C1A  809  14.757  14.300   5.771  0.0237 -0.0073  0.0139
    1DPPC   C2A  810  14.715  14.409   5.363  0.1761 -0.1848  0.0429
    1DPPC   C3A  811  14.649  14.631   5.125  0.0977  0.2358  0.1842
    1DPPC   C4A  812  14.362  14.751   4.750 -0.0472 -0.3143 -0.0823
    1DPPC   C1B  813  14.413  14.669   5.912 -0.1428  0.0922  0.2380
    1DPPC   C2B  814  14.355  14.629   5.553  0.3744  0.2591  0.1374
    1DPPC   C3B  815  14.188  14.403   5.228 -0.2268  0.2032  0.1991
    1DPPC   C4B  816  14.143  14.302   4.859  0.0407 -0.0860 -0.0689
    1DPPC   NC3  817  20.477   5.633   6.330  0.0150 -0.0324  0.0324
    1DPPC   PO4  818  20.129   5.807   6.495 -0.3529 -0.1324  0.0190
    1DPPC   GL1  819  20.128   5.936   6.037  0.0870  0.0970  0.0273
    1DPPC   GL2  820  19.790   5.902   6.054  0.0182  0.2092  0.1237
    1DPPC   C1A  821  20.411   5.811   5.753 -0.2638 -0.1675  0.0131
    1DPPC   C2A  822  20.372   5.680   5.309  0.3448  0.1911 -0.1028
    1DPPC   C3A  823  20.527   5.852   4.897 -0.1896 -0.2584 -0.0272
    1DPPC   C4A  824  20.533   6.184   4.593 -0.1044 -0.1103  0.1181
    1DPPC   C1B  825  19.771   6.123   5.692  0.2044  0.2056  0.2851
    1DPPC   C2B  826  19.922   6.451   5.553  0.2654  0.1365  0.0095
    1DPPC   C3B  827  20.322   6.784   5.445  0.0021  0.1848  0.0254
    1DPPC   C4B  828  20.417   7.039   5.122 -0.1118 -0.0812  0.0875
    1DPPC   NC3  829  27.670   9.958   6.402  0.2428  0.0591 -0.2927
    1DPPC   PO4  830  27.372  10.015   6.141 -0.0538 -0.0182  0.0139
    1DPPC   GL1  831  27.489  10.218   5.785  0.2818  0.2281  0.0629
    1DPPC   GL2  832  27.357  10.488   5.592 -0.0918  0.1652  0.0520
    1DPPC   C1A  833  27.726  10.155   5.514  0.0600 -0.1603  0.1389
    1DPPC   C2A  834  27.721  10.050   5.090 -0.2838 -0.1131  0.1802
    1DPPC   C3A  835  27.729  10.086   4.689 -0.2067  0.2050 -0.0592
    1DPPC   C4A  836  27.832  10.373   4.327  0.2427 -0.0553  0.0428
    1DPPC   C1B  837  27.621  10.660   5.236  0.1314 -0.3341  0.1683
    1DPPC   C2B  838  27.841  10.532   4.829  0.1089  0.1225 -0.0858
    1DPPC   C3B  839  28.219  10.494   4.628 -0.0750 -0.1406  0.1723
    1DPPC   C4B  840  28.362  10.318   4.158  0.0450  0.0099 -0.1986
    1DPPC   NC3  841   9.170  16.724   6.596 -0.0591  0.0428  0.0154
    1DPPC   PO4  842   9.482  16.451   6.529  0.2115 -0.1806  0.1862
    1DPPC   GL1  843   9.305  16.385   6.181 -0.2577  0.2335 -0.1595
    1DPPC   GL2  844   9.029  16.484   6.181  0.2981 -0.1177  0.1338
    1DPPC   C1A  845   9.418  16.140   5.817 -0.0368 -0.3566  0.0938
    1DPPC   C2A  846   9.408  15.921   5.534  0.0403 -0.2026  0.1160
    1DPPC   C3A  847   9.517  15.770   5.174 -0.0003 -0.0479 -0.0361
    1DPPC   C4A  848   9.554  15.866   4.830  0.0826 -0.2700 -0.2003
    1DPPC   C1B  849   9.219  16.632   5.765  0.4819 -0.1711 -0.3250
    1DPPC   C2B  850   9.282  16.699   5.239 -0.0766  0.0873 -0.2402
    1DPPC   C3B  851   9.434  16.359   4.991 -0.1844  0.2194 -0.0166
    1DPPC   C4B  852   9.579  16.454   4.552  0.3011 -0.0413  0.0263
    1DPPC   NC3  853  18.563  18.823   7.588 -0.0684  0.1513  0.1462
    1DPPC   PO4  854  18.361  18.843   7.204 -0.0821  0.0843  0.0432
    1DPPC   GL1  855  18.061  18.811   6.885 -0.1209  0.1370 -0.2058
    1DPPC   GL2  856  17.773  18.957   6.961  0.4121 -0.2753 -0.0079
    1DPPC   C1A  857  18.028  18.635   6.398  0.0190  0.1119 -0.1246
    1DPPC   C2A  858  18.116  18.569   5.969  0.1648  0.0793  0.1729
    1DPPC   C3A  859  18.118  18.590   5.640 -0.0565 -0.0673 -0.1150
    1DPPC   C4A  860  18.080  18.515   5.129  0.1580  0.0911 -0.0666
    1DPPC   C1B  861  17.757  19.060   6.556  0.0523  0.0176  0.2652
    1DPPC   C2B  862  17.768  18.968   6.133  0.1319  0.1936  0.3159
    1DPPC   C3B  863  17.814  18.971   5.693 -0.0009 -0.1275  0.1285
    1DPPC   C4B  864  17.927  19.010   5.224  0.3447 -0.2242 -0.0188
    1DPPC   NC3  865  15.061  16.252   6.824  0.2858  0.1878 -0.3700
    1DPPC   PO4  866  15.379  16.482   7.029 -0.0209 -0.1926 -0.0308
    1DPPC   GL1  867  15.394  16.505   6.524  0.0480 -0.1758 -0.1174
    1DPPC   GL2  868  15.696  16.542   6.306  0.0978 -0.1506 -0.1654
    1DPPC   C1A  869  15.248  16.593   6.128 -0.0200 -0.1095  0.0929
    1DPPC   C2A  870  15.169  16.514   5.735  0.3639 -0.0953  0.0932
    1DPPC   C3A  871  15.345  16.650   5.297  0.1476  0.0819 -0.1898
    1DPPC   C4A  872  15.447  16.511   4.901  0.0059 -0.0073 -0.1553
    1DPPC   C1B  873  15.832  16.734   5.976  0.0246  0.1016  0.0575
    1DPPC   C2B  874  15.795  16.747   5.569  0.0311  0.3065  0.0299
    1DPPC   C3B  875  15.773  16.824   5.081 -0.1161  0.0785  0.2593
    1DPPC   C4B  876  15.673  16.906   4.631  0.1237 -0.5876  0.2760
    1DPPC   NC3  877  19.984  11.974   6.726  0.0267 -0.0256 -0.0250
    1DPPC   PO4  878  19.599  11.923   6.571  0.1535 -0.2016 -0.0376
    1DPPC   GL1  879  19.770  11.962   6.189 -0.1447 -0.2563  0.3373
    1DPPC   GL2  880  19.526  11.985   5.923  0.0498  0.0121  0.3834
    1DPPC   C1A  881  20.091  12.114   5.947  0.0937  0.2984  0.1177
    1DPPC   C2A  882  20.178  12.245   5.514  0.0204 -0.0112  0.0206
    1DPPC   C3A  883  20.164  12.281   5.013 -0.3324 -0.0869  0.0130
    1DPPC   C4A  884  20.240  12.075   4.599 -0.3025  0.3795 -0.0300
    1DPPC   C1B  885  19.831  11.730   5.700 -0.1624  0.2157  0.1762
    1DPPC   C2B  886  19.945  11.811   5.337  0.0709 -0.0709 -0.0480
    1DPPC   C3B  887  20.042  11.773   4.925  0.0552 -0.2784  0.1870
    1DPPC   C4B  888  20.317  11.597   4.543  0.0895  0.3928 -0.0527
    1DPPC   NC3  889  19.508  12.607   6.533 -0.1424  0.0994 -0.3150
    1DPPC   PO4  890  19.480  12.996   6.364  0.0001  0.4581 -0.0117
    1DPPC   GL1  891  19.617  12.788   6.047  0.0622 -0.3208  0.1635
    1DPPC   GL2  892  19.654  12.534   6.019 -0.0106  0.1270 -0.0538
    1DPPC   C1A  893  19.552  12.835   5.598 -0.0498 -0.2197 -0.4943
    1DPPC   C2A  894  19.376  12.622   5.234  0.1948  0.0724 -0.0317
    1DPPC   C3A  895  19.371  12.579   4.881 -0.0029 -0.1539 -0.1755
    1DPPC   C4A  896  19.266  12.342   4.499  0.3168 -0.2979 -0.1180
    1DPPC   C1B  897  19.661  12.362   5.599 -0.2664  0.3128  0.0160
    1DPPC   C2B  898  19.628  12.212   5.162 -0.1305  0.1770 -0.0749
    1DPPC   C3B  899  19.733  12.130   4.714 -0.2455  0.0501  0.0160
    1DPPC   C4B  900  19.716  12.177   4.250  0.0890 -0.1955  0.0059
    1DPPC   NC3  901  21.003  15.214   6.679  0.6203 -0.0694 -0.0807
    1DPPC   PO4  902  21.177  14.981   6.276  0.2692 -0.0983 -0.1552
    1DPPC   GL1  903  21.032  15.156   5.935  0.2138 -0.0268 -0.0745
    1DPPC   GL2  904  21.026  15.456   6.091  0.0142  0.1651  0.0087
    1DPPC   C1A  905  20.915  15.326   5.620  0.1240 -0.0130 -0.0528
    1DPPC   C2A  906  20.894  15.186   5.264 -0.2686  0.3413  0.2724
    1DPPC   C3A  907  21.074  15.287   4.797  0.1383  0.0190  0.1030
    1DPPC   C4A  908  21.187  15.376   4.331  0.0234 -0.1398  0.2125
    1DPPC   C1B  909  21.083  15.780   5.738  0.0663  0.2313  0.0375
    1DPPC   C2B  910  21.080  16.253   5.512 -0.0937  0.0971 -0.2438
    1DPPC   C3B  911  21.205  16.300   5.012  0.1231 -0.0301 -0.0160
    1DPPC   C4B  912  21.549  16.448   4.725 -0.0924  0.3495 -0.0376
    1DPPC   NC3  913   9.059  14.032   6.978  0.0944 -0.2196  0.1152
    1DPPC   PO4  914   8.721  13.810   6.996  0.3941 -0.1948  0.1302
    1DPPC   GL1  915   8.916  13.705   6.622 -0.3409 -0.0558 -0.1745
    1DPPC   GL2  916   9.224  13.791   6.490  0.0017 -0.3013 -0.1521
    1DPPC   C1A  917   8.726  13.623   6.290 -0.3097  0.0519  0.2080
    1DPPC   C2A  918   8.742  13.482   5.788 -0.0300  0.0738  0.1788
    1DPPC   C3A  919   8.851  13.481   5.401 -0.0203  0.0764  0.0647
    1DPPC   C4A  920   8.822  13.649   4.990  0.3442  0.0338  0.2842
    1DPPC   C1B  921   9.257  13.597   6.074  0.4042  0.1582  0.2891
    1DPPC   C2B  922   9.586  13.348   5.888 -0.3966  0.1348 -0.0165
    1DPPC   C3B  923   9.853  13.309   5.619  0.1659  0.0383 -0.0644
    1DPPC   C4B  924  10.104  13.335   5.230  0.0095 -0.0473 -0.1426
    1DPPC   NC3  925  20.469   8.754   6.704  0.4259  0.0632 -0.0171
    1DPPC   PO4  926  20.700   8.821   6.302  0.3950  0.1746  0.2623
    1DPPC   GL1  927  20.565   8.610   5.949  0.3086 -0.2593  0.1494
    1DPPC   GL2  928  20.521   8.253   5.889 -0.1790 -0.0772  0.0168
    1DPPC   C1A  929  20.738   8.580   5.542  0.1272  0.1208 -0.0782
    1DPPC   C2A  930  20.641   8.408   5.186 -0.3692  0.0043  0.0233
    1DPPC   C3A  931  20.846   8.400   4.829  0.1852  0.0040 -0.0220
    1DPPC   C4A  932  20.899   8.431   4.419 -0.2768  0.0803  0.2347
    1DPPC   C1B  933  20.645   8.028   5.495  0.2914  0.2067 -0.0262
    1DPPC   C2B  934  20.760   7.884   5.064 -0.2463 -0.0429 -0.0653
    1DPPC   C3B  935  20.577   7.559   4.749 -0.2698 -0.2536  0.2744
    1DPPC   C4B  936  20.376   7.397   4.420  0.0029  0.0498 -0.0897
    1DPPC   NC3  937  18.089  13.277   6.763 -0.0317 -0.0452 -0.2637
    1DPPC   PO4  938  18.409  13.604   6.640 -0.1973  0.2824  0.3034
    1DPPC   GL1  939  18.562  13.362   6.369 -0.0516 -0.0478 -0.0316
    1DPPC   GL2  940  18.277  13.205   6.257  0.1290  0.0177 -0.0415
    1DPPC   C1A  941  18.689  13.334   5.910 -0.0031  0.1938  0.2449
    1DPPC   C2A  942  18.681  13.485   5.511  0.1285  0.0776 -0.0236
    1DPPC   C3A  943  18.635  13.426   5.045  0.0607  0.2862  0.0018
    1DPPC   C4A  944  18.576  13.335   4.650 -0.0282  0.1162 -0.0801
    1DPPC   C1B  945  18.166  13.156   5.795 -0.1511  0.0754  0.0891
    1DPPC   C2B  946  18.108  13.201   5.410 -0.3756  0.0727 -0.1823
    1DPPC   C3B  947  18.057  13.260   4.906 -0.0299  0.1720 -0.2218
    1DPPC   C4B  948  18.060  13.404   4.475 -0.2266  0.1042  0.0014
    1DPPC   NC3  949  10.997  20.349   6.280  0.3826 -0.0280  0.1827
    1DPPC   PO4  950  10.948  19.892   6.382 -0.0672 -0.2536 -0.0282
    1DPPC   GL1  951  11.265  19.780   6.103  0.0653 -0.0627 -0.1081
    1DPPC   GL2  952  11.381  20.099   6.101  0.2429  0.1653  0.1489
    1DPPC   C1A  953  11.661  19.675   5.853 -0.0156  0.3665 -0.0681
    1DPPC   C2A  954  11.739  19.468   5.503  0.0418 -0.3381 -0.0513
    1DPPC   C3A  955  11.773  19.184   5.086  0.1293 -0.4071 -0.2939
    1DPPC   C4A  956  11.871  19.181   4.573 -0.0381 -0.4066 -0.0221
    1DPPC   C1B  957  11.438  20.092   5.652 -0.2211 -0.1992  0.2540
    1DPPC   C2B  958  11.277  20.287   5.243  0.1110  0.0686  0.0443
    1DPPC   C3B  959  11.000  20.241   4.766 -0.2019 -0.0437 -0.0938
    1DPPC   C4B  960  10.648  20.245   4.546 -0.0147 -0.0757  0.2476
    1DPPC   NC3  961  15.904  14.640   6.930 -0.1312 -0.0554 -0.3784
    1DPPC   PO4  962  15.549  14.707   6.728 -0.0107  0.1045  0.0074
    1DPPC   GL1  963  15.360  14.626   6.248 -0.3721  0.0983 -0.1847
    1DPPC   GL2  964  15.583  14.624   6.043 -0.0341 -0.1899 -0.1656
    1DPPC   C1A  965  15.059  14.722   5.844  0.1655 -0.0800  0.0084
    1DPPC   C2A  966  15.106  14.770   5.405 -0.2263 -0.0141  0.1393
    1DPPC   C3A  967  15.062  14.820   4.942  0.0122 -0.0705  0.0165
    1DPPC   C4A  968  14.850  14.608   4.680 -0.1583 -0.1089 -0.0187
    1DPPC   C1B  969  15.551  14.797   5.677  0.1988  0.0260 -0.1014
    1DPPC   C2B  970  15.646  14.750   5.236  0.2737  0.1258 -0.0574
    1DPPC   C3B  971  15.718  14.804   4.845 -0.0219 -0.1164 -0.0434
    1DPPC   C4B  972  15.844  14.653   4.350 -0.1260 -0.0842  0.0968
    1DPPC   NC3  973  14.996  15.360   6.698  0.1297 -0.1175 -0.0958
    1DPPC   PO4  974  15.473  15.271   6.822 -0.0449  0.1069 -0.1355
    1DPPC   GL1  975  15.452  15.146   6.471 -0.0327  0.0581  0.3381
    1DPPC   GL2  976  15.665  15.371   6.328  0.1562  0.2624  0.1705
    1DPPC   C1A  977  15.181  15.076   6.136  0.1672  0.1098  0.2970
    1DPPC   C2A  978  15.204  15.207   5.747 -0.1306  0.1363 -0.2494
    1DPPC   C3A  979  15.298  15.253   5.367  0.1987  0.0509 -0.0893
    1DPPC   C4A  980  15.420  15.170   4.919 -0.1639 -0.0010  0.0334
    1DPPC   C1B  981  15.678  15.197   5.955 -0.1200  0.2754  0.3390
    1DPPC   C2B  982  15.756  15.232   5.573  0.1404 -0.0928  0.0113
    1DPPC   C3B  983  15.798  15.258   5.203 -0.0163 -0.1038  0.3097
    1DPPC   C4B  984  15.958  15.282   4.769  0.1790 -0.0587  0.2562
    1DPPC   NC3  985  12.367  18.193   6.864 -0.0959  0.1146 -0.1812
    1DPPC   PO4  986  12.684  18.288   6.540 -0.1249 -0.1402 -0.0706
    1DPPC   GL1  987  12.867  18.148   6.157 -0.3075  0.1861  0.1996
    1DPPC   GL2  988  12.958  17.915   6.191  0.1528 -0.0475  0.0879
    1DPPC   C1A  989  12.839  18.087   5.681  0.0404 -0.4368 -0.0602
    1DPPC   C2A  990  12.767  18.160   5.256  0.0205  0.3142  0.0453
    1DPPC   C3A  991  12.851  18.274   4.888  0.2670 -0.0722  0.0003
    1DPPC   C4A  992  12.949  18.607   4.645 -0.0384  0.1578 -0.0519
    1DPPC   C1B  993  13.233  17.889   5.881 -0.1792  0.2078  0.0393
    1DPPC   C2B  994  13.229  17.869   5.491 -0.2411 -0.1861  0.1241
    1DPPC   C3B  995  13.155  17.891   5.068 -0.0578  0.0517  0.2865
    1DPPC   C4B  996  13.398  18.096   4.662 -0.0191 -0.2758 -0.0109
    1DPPC   NC3  997  15.372  23.231   6.627  0.1434  0.1176  0.2375
    1DPPC   PO4  998  15.744  23.455   6.583  0.2259 -0.0121  0.2072
    1DPPC   GL1  999  15.739  23.455   6.190  0.1314 -0.2381  0.4177
    1DPPC   GL2 1000  15.420  23.511   6.055 -0.2374  0.2630 -0.1579
    1DPPC   C1A 1001  15.803  23.287   5.787  0.1834  0.0493 -0.1378
    1DPPC   C2A 1002  16.111  23.158   5.521 -0.2000 -0.0708 -0.1962
    1DPPC   C3A 1003  16.370  23.006   5.260 -0.3144  0.4005  0.1068
    1DPPC   C4A 1004  16.775  23.031   5.033  0.3170  0.1386 -0.0386
    1DPPC   C1B 1005  15.371  23.385   5.591  0.1351 -0.1095 -0.0477
    1DPPC   C2B 1006  15.616  23.363   5.238 -0.0299 -0.2774  0.2743
    1DPPC   C3B 1007  15.870  23.214   5.024 -0.1360 -0.3534  0.2182
    1DPPC   C4B 1008  16.240  23.099   4.824 -0.0932  0.1169 -0.0314
    1DPPC   NC3 1009  16.022   7.993   6.606  0.3392 -0.1277  0.2701
    1DPPC   PO4 1010  15.664   7.972   6.525  0.2055 -0.0509 -0.1855
    1DPPC   GL1 1011  15.576   8.265   6.222 -0.2621  0.0142  0.2314
    1DPPC   GL2 1012  15.455   8.578   6.354  0.0904 -0.1081 -0.0862
    1DPPC   C1A 1013  15.739   8.430   5.893  0.2649 -0.0592 -0.0280
    1DPPC   C2A 1014  15.747   8.381   5.408 -0.0014  0.0743  0.0678
    1DPPC   C3A 1015  15.777   8.284   5.018 -0.1287  0.1080 -0.3270
    1DPPC   C4A 1016  15.876   8.133   4.665 -0.2047  0.1157  0.0261
    1DPPC   C1B 1017  15.226   8.450   5.874  0.0467 -0.0733  0.0372
    1DPPC   C2B 1018  15.226   8.384   5.424  0.1325  0.2623  0.1187
    1DPPC   C3B 1019  15.170   8.087   5.070  0.2937  0.0394  0.0590
    1DPPC   C4B 1020  14.908   7.701   4.853 -0.1730 -0.1201  0.0530
    1DPPC   NC3 1021  19.568  10.568   6.116 -0.2072 -0.0083 -0.0037
    1DPPC   PO4 1022  20.046  10.529   6.076 -0.0684 -0.1311 -0.2600
    1DPPC   GL1 1023  20.214  10.301   5.591  0.1940  0.0887 -0.3523
    1DPPC   GL2 1024  20.479  10.066   5.644 -0.0403 -0.0553  0.0928
    1DPPC   C1A 1025  20.034  10.293   5.234  0.1768 -0.0513 -0.2923
    1DPPC   C2A 1026  20.129  10.198   4.811 -0.0875 -0.2838  0.1770
    1DPPC   C3A 1027  20.201  10.194   4.364  0.6557 -0.0240 -0.0873
    1DPPC   C4A 1028  20.128  10.302   3.886 -0.0284 -0.0861  0.0352
    1DPPC   C1B 1029  20.561   9.976   5.279  0.1438 -0.2038 -0.1248
    1DPPC   C2B 1030  20.639   9.833   4.905 -0.2728  0.1023 -0.1397
    1DPPC   C3B 1031  20.563   9.888   4.534  0.0431  0.0507 -0.1461
    1DPPC   C4B 1032  20.412   9.846   4.159 -0.2888  0.3251  0.1223
    1DPPC   NC3 1033  17.966  17.148   6.760 -0.1991 -0.0218  0.1468
    1DPPC   PO4 1034  17.599  16.869   6.814 -0.1522 -0.0156  0.2555
    1DPPC   GL1 1035  17.440  17.161   6.544  0.3521 -0.1021 -0.0287
    1DPPC   GL2 1036  17.159  17.281   6.500 -0.2210  0.5727  0.0248
    1DPPC   C1A 1037  17.613  17.369   6.182  0.0466 -0.0393 -0.0506
    1DPPC   C2A 1038  17.677  17.515   5.793  0.0448 -0.0939  0.2423
    1DPPC   C3A 1039  17.623  17.488   5.361  0.1466 -0.0964  0.0293
    1DPPC   C4A 1040  17.644  17.417   4.971 -0.3681  0.1942  0.0903
    1DPPC   C1B 1041  17.208  17.096   6.130 -0.2391  0.0262  0.2309
    1DPPC   C2B 1042  17.274  17.307   5.681  0.1933 -0.1737 -0.0305
    1DPPC   C3B 1043  17.171  17.357   5.334  0.3141 -0.1515  0.0377
    1DPPC   C4B 1044  17.017  17.292   4.918 -0.0772 -0.1527 -0.2301
    1DPPC   NC3 1045   8.697  14.982   7.045  0.0232  0.0274 -0.3444
    1DPPC   PO4 1046   8.461  14.697   6.795  0.0964 -0.2154 -0.0306
    1DPPC   GL1 1047   8.458  14.646   6.428  0.0891 -0.2195 -0.1844
    1DPPC   GL2 1048   8.806  14.718   6.268 -0.2030 -0.3016 -0.3313
    1DPPC   C1A 1049   8.491  14.457   6.032 -0.0192  0.1502  0.1695
    1DPPC   C2A 1050   8.563  14.413   5.560 -0.0506 -0.1996 -0.1898
    1DPPC   C3A 1051   8.277  14.461   5.218 -0.0723 -0.2711 -0.0086
    1DPPC   C4A 1052   8.180  14.552   4.793  0.1177  0.0004 -0.0108
    1DPPC   C1B 1053   8.911  14.612   5.919 -0.3512  0.0988 -0.1070
    1DPPC   C2B 1054   9.021  14.410   5.512  0.1896 -0.0836 -0.0268
    1DPPC   C3B 1055   8.831  14.403   5.077 -0.3584  0.1566  0.4403
    1DPPC   C4B 1056   8.627  14.788   4.961  0.3522 -0.2389 -0.1006
    1DPPC   NC3 1057  14.693  11.459   6.557  0.0261  0.2787 -0.2230
    1DPPC   PO4 1058  14.292  11.678   6.610  0.0599 -0.0246 -0.0303
    1DPPC   GL1 1059  14.193  11.532   6.327 -0.1199 -0.0956 -0.0936
    1DPPC   GL2 1060  13.975  11.922   6.294 -0.0219 -0.0050 -0.3039
    1DPPC   C1A 1061  14.206  11.549   5.874  0.1363 -0.1894  0.2186
    1DPPC   C2A 1062  14.096  11.516   5.425  0.0645  0.0950  0.0566
    1DPPC   C3A 1063  13.930  11.610   4.992  0.0997 -0.3065 -0.2978
    1DPPC   C4A 1064  13.762  11.833   4.740 -0.0433  0.0503  0.0401
    1DPPC   C1B 1065  13.955  11.971   5.850  0.0092 -0.0848  0.0118
    1DPPC   C2B 1066  13.901  12.039   5.431  0.2043 -0.2340  0.1494
    1DPPC   C3B 1067  13.738  12.206   5.026 -0.3065 -0.1688  0.1031
    1DPPC   C4B 1068  13.703  12.506   4.636 -0.0476  0.0801 -0.2840
    1DPPC   NC3 1069  15.725  16.782   6.879 -0.1161 -0.3190  0.0982
    1DPPC   PO4 1070  15.667  17.166   6.622  0.0759  0.1215 -0.1254
    1DPPC   GL1 1071  15.898  17.059   6.381 -0.1432 -0.1569  0.1491
    1DPPC   GL2 1072  15.741  17.178   6.087  0.1189 -0.1079  0.1879
    1DPPC   C1A 1073  16.283  17.260   6.024 -0.1178 -0.0908  0.2508
    1DPPC   C2A 1074  16.472  17.210   5.613 -0.2089 -0.2677  0.0773
    1DPPC   C3A 1075  16.592  17.286   5.233  0.0336  0.1133  0.1594
    1DPPC   C4A 1076  16.642  17.574   4.875  0.2300 -0.6802  0.3421
    1DPPC   C1B 1077  15.875  17.219   5.668  0.0036  0.0798 -0.0173
    1DPPC   C2B 1078  16.065  17.224   5.301 -0.0676 -0.1325  0.1031
    1DPPC   C3B 1079  16.218  17.390   4.920 -0.1420  0.0195  0.2657
    1DPPC   C4B 1080  16.205  17.125   4.622  0.0107  0.2818 -0.1330
    1DPPC   NC3 1081  23.329  18.170   6.797  0.1951  0.2748 -0.1191
    1DPPC   PO4 1082  23.750  17.988   6.894 -0.0592 -0.0814  0.0097
    1DPPC   GL1 1083  23.614  18.019   6.390 -0.2481  0.1368 -0.0379
    1DPPC   GL2 1084  23.482  17.733   6.200  0.2350  0.1588 -0.2070
    1DPPC   C1A 1085  23.550  18.342   6.041  0.2401 -0.0480 -0.3027
    1DPPC   C2A 1086  23.578  18.480   5.673 -0.3995  0.1194  0.0201
    1DPPC   C3A 1087  23.342  18.413   5.237  0.2756  0.0329  0.1551
    1DPPC   C4A 1088  22.921  18.472   5.135 -0.0113 -0.2383  0.1162
    1DPPC   C1B 1089  23.158  17.963   5.869  0.2249 -0.1997 -0.2982
    1DPPC   C2B 1090  22.946  18.111   5.505 -0.2308  0.0393  0.1158
    1DPPC   C3B 1091  23.020  17.980   5.059  0.2371  0.2698 -0.1438
    1DPPC   C4B 1092  22.642  17.916   4.810  0.1818  0.2157 -0.2595
    1DPPC   NC3 1093  21.534  23.118   6.915  0.0495 -0.1391 -0.0807
    1DPPC   PO4 1094  21.848  22.909   6.564 -0.1500  0.4086  0.0259
    1DPPC   GL1 1095  21.547  22.959   6.327 -0.2536  0.0004 -0.1509
    1DPPC   GL2 1096  21.508  23.147   6.050 -0.0109 -0.1840  0.2841
    1DPPC   C1A 1097  21.266  22.716   6.080  0.1366  0.1218  0.0808
    1DPPC   C2A 1098  20.921  22.700   5.957  0.2884 -0.0133  0.2035
    1DPPC   C3A 1099  20.578  22.562   5.897  0.2088 -0.2787  0.1907
    1DPPC   C4A 1100  20.273  22.341   5.506  0.1514 -0.1756  0.0847
    1DPPC   C1B 1101  21.572  22.861   5.757  0.2769 -0.0578 -0.1544
    1DPPC   C2B 1102  21.500  22.789   5.248 -0.0677 -0.1389  0.1148
    1DPPC   C3B 1103  21.390  22.609   4.969 -0.2746 -0.1445 -0.0209
    1DPPC   C4B 1104  21.131  22.662   4.599 -0.0320 -0.2048 -0.2868
    1DPPC   NC3 1105  20.153  15.273   6.522 -0.3864  0.0116  0.0104
    1DPPC   PO4 1106  19.741  15.280   6.312  0.1919 -0.0254  0.0443
    1DPPC   GL1 1107  19.627  15.258   5.961 -0.1386 -0.3461  0.1474
    1DPPC   GL2 1108  19.522  14.999   6.014 -0.2394 -0.1147  0.2004
    1DPPC   C1A 1109  19.601  15.216   5.579  0.1229  0.0184 -0.0017
    1DPPC   C2A 1110  19.634  15.083   5.069  0.1012 -0.2796  0.2025
    1DPPC   C3A 1111  19.648  15.021   4.675  0.1472 -0.0693  0.1289
    1DPPC   C4A 1112  19.402  14.862   4.424  0.1283 -0.0018 -0.0256
    1DPPC   C1B 1113  19.451  14.736   5.601 -0.0225 -0.1006  0.0031
    1DPPC   C2B 1114  19.470  14.619   5.101 -0.4129 -0.2986 -0.3595
    1DPPC   C3B 1115  19.525  14.365   4.680 -0.1526  0.2464  0.2614
    1DPPC   C4B 1116  19.699  13.953   4.378  0.0657 -0.1092 -0.0756
    1DPPC   NC3 1117  29.412  22.189   6.253  0.0442  0.0754 -0.2722
    1DPPC   PO4 1118  29.023  22.029   6.021  0.0418  0.0945  0.0356
    1DPPC   GL1 1119  28.987  21.860   5.683 -0.0391 -0.1664 -0.0467
    1DPPC   GL2 1120  28.656  21.847   5.594  0.0344 -0.0837 -0.3218
    1DPPC   C1A 1121  28.865  21.417   5.435 -0.1471  0.0257  0.1104
    1DPPC   C2A 1122  28.677  21.053   5.150 -0.1765 -0.1374  0.2890
    1DPPC   C3A 1123  28.768  20.838   4.863  0.1077 -0.0225 -0.3120
    1DPPC   C4A 1124  28.640  20.718   4.383  0.3925  0.1773  0.1002
    1DPPC   C1B 1125  28.410  21.947   5.145  0.0095 -0.1116 -0.0805
    1DPPC   C2B 1126  28.281  21.970   4.727  0.0424 -0.0471  0.1875
    1DPPC   C3B 1127  28.317  22.165   4.435 -0.1640  0.1623 -0.1507
    1DPPC   C4B 1128  28.594  22.406   4.163 -0.1214  0.1416  0.1235
    1DPPC   NC3 1129  23.529  16.385   6.088  0.0201 -0.0058 -0.1499
    1DPPC   PO4 1130  23.916  16.381   6.169 -0.0176  0.1217 -0.0454
    1DPPC   GL1 1131  23.980  16.412   5.741 -0.1090  0.2423  0.0011
    1DPPC   GL2 1132  23.717  16.602   5.602  0.0145  0.0794 -0.0049
    1DPPC   C1A 1133  23.986  16.448   5.238  0.4178  0.0833  0.3238
    1DPPC   C2A 1134  24.031  16.608   4.850 -0.4119 -0.0174  0.1842
    1DPPC   C3A 1135  24.075  16.835   4.477  0.3471 -0.0719 -0.2060
    1DPPC   C4A 1136  24.110  16.874   4.015  0.0425  0.0071  0.2895
    1DPPC   C1B 1137  23.492  16.500   5.212 -0.3399  0.0461 -0.2314
    1DPPC   C2B 1138  23.140  16.632   5.043 -0.1158 -0.0098 -0.0885
    1DPPC   C3B 1139  23.045  16.645   4.532 -0.2499  0.1302 -0.1470
    1DPPC   C4B 1140  22.581  16.743   4.352 -0.0665  0.1856 -0.0084
    1DPPC   NC3 1141  10.101  15.477   6.708 -0.0044 -0.1171  0.1849
    1DPPC   PO4 1142   9.818  15.120   6.815 -0.0549 -0.2073 -0.1139
    1DPPC   GL1 1143   9.595  14.911   6.517 -0.0471 -0.0754 -0.3190
    1DPPC   GL2 1144   9.597  14.627   6.314 -0.2907  0.3211  0.0058
    1DPPC   C1A 1145   9.555  15.026   5.974  0.2973  0.0699 -0.0210
    1DPPC   C2A 1146   9.539  14.802   5.528 -0.0071  0.4130  0.0446
    1DPPC   C3A 1147   9.421  14.514   5.208 -0.1467  0.2277 -0.1281
    1DPPC   C4A 1148   9.312  14.425   4.796 -0.0766  0.1761  0.0855
    1DPPC   C1B 1149   9.630  14.532   5.985 -0.0819 -0.0939  0.1039
    1DPPC   C2B 1150   9.574  14.304   5.637  0.1578 -0.2235 -0.0837
    1DPPC   C3B 1151   9.692  14.131   5.357 -0.0437  0.1427 -0.2633
    1DPPC   C4B 1152   9.585  14.032   4.941 -0.1531  0.1184  0.2496
    1DPPC   NC3 1153  18.549  11.162   6.304 -0.1568 -0.0695 -0.1264
    1DPPC   PO4 1154  18.346  10.733   6.315 -0.0391  0.1089 -0.0611
    1DPPC   GL1 1155  18.513  10.822   5.894  0.2982  0.0799 -0.3035
    1DPPC   GL2 1156  18.690  10.582   5.751 -0.0461  0.0625 -0.1985
    1DPPC   C1A 1157  18.836  10.989   5.524 -0.2117  0.0112  0.2017
    1DPPC   C2A 1158  18.946  10.965   5.144 -0.0452  0.2166 -0.2149
    1DPPC   C3A 1159  18.813  10.970   4.782  0.3826  0.2151  0.0469
    1DPPC   C4A 1160  18.543  10.952   4.457  0.4084  0.2966 -0.0546
    1DPPC   C1B 1161  18.548  10.641   5.387 -0.2029  0.1549 -0.0735
    1DPPC   C2B 1162  18.451  10.616   5.015 -0.1059  0.0631 -0.0265
    1DPPC   C3B 1163  18.182  10.564   4.580 -0.4210  0.1725  0.0363
    1DPPC   C4B 1164  18.261  10.652   4.146 -0.3785 -0.1067 -0.1961
    1DPPC   NC3 1165  12.875  19.765   6.957  0.1029  0.1833  0.0144
    1DPPC   PO4 1166  13.161  19.455   7.000 -0.4111  0.0436 -0.3178
    1DPPC   GL1 1167  13.191  19.532   6.603 -0.2478 -0.2004  0.3281
    1DPPC   GL2 1168  13.388  19.639   6.305 -0.2368 -0.0209 -0.4001
    1DPPC   C1A 1169  12.888  19.355   6.222 -0.3573 -0.2038 -0.3141
    1DPPC   C2A 1170  12.618  19.052   5.874  0.3647 -0.3430 -0.1150
    1DPPC   C3A 1171  12.628  18.920   5.455 -0.4385  0.2610 -0.2885
    1DPPC   C4A 1172  12.855  18.719   5.137 -0.2626  0.4315  0.2907
    1DPPC   C1B 1173  13.660  19.792   6.003 -0.0617 -0.2894 -0.1371
    1DPPC   C2B 1174  13.615  19.992   5.724 -0.0299 -0.0842 -0.0303
    1DPPC   C3B 1175  13.904  19.995   5.521 -0.0276  0.1958 -0.4090
    1DPPC   C4B 1176  13.920  20.025   5.063  0.3361  0.2942  0.1556
    1DPPC   NC3 1177  15.538  11.613   7.120  0.0154  0.2927 -0.2660
    1DPPC   PO4 1178  15.523  11.240   6.819  0.0296 -0.1379  0.2593
    1DPPC   GL1 1179  15.601  11.100   6.345 -0.0651 -0.1560  0.0348
    1DPPC   GL2 1180  15.843  11.281   6.251 -0.0144  0.2272  0.1045
    1DPPC   C1A 1181  15.314  10.907   6.021 -0.0835  0.2207 -0.2227
    1DPPC   C2A 1182  15.353  10.782   5.608  0.0230  0.1872 -0.1106
    1DPPC   C3A 1183  15.286  10.770   5.134  0.2026 -0.2618 -0.0744
    1DPPC   C4A 1184  15.187  10.809   4.683  0.2011  0.3001  0.0150
    1DPPC   C1B 1185  15.708  11.226   5.856 -0.2552 -0.0474  0.1667
    1DPPC   C2B 1186  15.785  11.265   5.500  0.3231 -0.3669 -0.1298
    1DPPC   C3B 1187  15.756  11.170   5.134  0.0333 -0.1021 -0.0961
    1DPPC   C4B 1188  15.635  11.176   4.731 -0.0726  0.0117 -0.1532
    1DPPC   NC3 1189  18.519   7.525   6.385 -0.2628  0.0579  0.2058
    1DPPC   PO4 1190  19.026   7.468   6.463 -0.1838 -0.3752 -0.0266
    1DPPC   GL1 1191  18.887   7.418   6.059  0.1397 -0.0612  0.0841
    1DPPC   GL2 1192  19.082   7.560   5.822  0.0901  0.0605  0.2391
    1DPPC   C1A 1193  18.613   7.382   5.696  0.0209 -0.2460  0.0536
    1DPPC   C2A 1194  18.325   7.568   5.507  0.0137 -0.1526 -0.2087
    1DPPC   C3A 1195  17.896   7.697   5.387 -0.0596  0.0604  0.0958
    1DPPC   C4A 1196  17.531   7.872   5.606 -0.3285 -0.2535  0.3537
    1DPPC   C1B 1197  19.073   7.533   5.227 -0.1562 -0.1183  0.2257
    1DPPC   C2B 1198  18.965   7.445   4.767  0.2918 -0.1577 -0.1087
    1DPPC   C3B 1199  19.167   7.351   4.347 -0.1771 -0.1864 -0.0725
    1DPPC   C4B 1200  19.420   7.536   4.176 -0.1467 -0.0023  0.1162
    1DPPC   NC3 1201  20.634  15.928   6.755  0.0367 -0.1452  0.1534
    1DPPC   PO4 1202  20.412  15.695   6.448 -0.1755  0.0454  0.0093
    1DPPC   GL1 1203  20.131  15.876   6.157 -0.0500  0.1557 -0.4247
    1DPPC   GL2 1204  19.806  15.726   6.044  0.0383  0.0327  0.0834
    1DPPC   C1A 1205  20.093  15.955   5.733  0.0895 -0.1499  0.1139
    1DPPC   C2A 1206  20.169  16.013   5.382  0.0903  0.0073  0.4593
    1DPPC   C3A 1207  20.233  15.999   4.983 -0.0211 -0.0090 -0.2967
    1DPPC   C4A 1208  20.380  15.799   4.601  0.0480 -0.1149  0.1039
    1DPPC   C1B 1209  19.626  15.737   5.638  0.2616  0.3445 -0.2131
    1DPPC   C2B 1210  19.738  15.916   5.184 -0.1589  0.0846  0.0803
    1DPPC   C3B 1211  19.741  15.883   4.779  0.1581  0.2050  0.0405
    1DPPC   C4B 1212  19.527  16.006   4.440 -0.1675 -0.4115  0.1437
    1DPPC   NC3 1213  10.768  14.993   6.904  0.0171  0.0613  0.1365
    1DPPC   PO4 1214  10.650  15.393   6.730  0.2180  0.1022  0.0917
    1DPPC   GL1 1215  10.487  15.461   6.417  0.0336 -0.2151  0.0771
    1DPPC   GL2 1216  10.823  15.662   6.273 -0.1370 -0.0139  0.2423
    1DPPC   C1A 1217  10.354  15.645   6.065 -0.1577 -0.1925  0.0328
    1DPPC   C2A 1218  10.325  15.595   5.671 -0.0382 -0.2094 -0.0940
    1DPPC   C3A 1219  10.506  15.485   5.368 -0.0782 -0.3482  0.2679
    1DPPC   C4A 1220  10.462  15.435   4.851  0.2448  0.0299  0.0430
    1DPPC   C1B 1221  10.720  15.393   5.875 -0.0003 -0.0310 -0.2773
    1DPPC   C2B 1222  10.882  15.243   5.494  0.0420  0.1363  0.0322
    1DPPC   C3B 1223  11.061  15.350   5.191  0.1654  0.2959  0.2451
    1DPPC   C4B 1224  10.975  15.394   4.763 -0.1430 -0.0346 -0.0221
    1DPPC   NC3 1225  15.941  20.160   6.783 -0.0881 -0.1940  0.1374
    1DPPC   PO4 1226  16.143  19.766   6.931  0.0056  0.0713 -0.0060
    1DPPC   GL1 1227  16.131  19.800   6.455  0.1450  0.2841 -0.1377
    1DPPC   GL2 1228  16.352  20.051   6.484 -0.0617  0.0447 -0.1438
    1DPPC   C1A 1229  15.974  20.094   6.054  0.0318 -0.0594  0.3123
    1DPPC   C2A 1230  15.752  20.240   5.702  0.1278 -0.3616  0.3268
    1DPPC   C3A 1231  15.821  20.280   5.365 -0.1049 -0.4558 -0.0596
    1DPPC   C4A 1232  15.859  20.440   4.981  0.0021  0.0326  0.0154
    1DPPC   C1B 1233  16.448  19.896   6.048  0.0123 -0.5038  0.2476
    1DPPC   C2B 1234  16.239  20.006   5.677 -0.0505 -0.1394  0.1141
    1DPPC   C3B 1235  16.214  20.030   5.231  0.0105  0.0182 -0.2531
    1DPPC   C4B 1236  15.950  19.913   4.836 -0.2247 -0.0314 -0.0720
    1DPPC   NC3 1237  21.480  14.581   6.273  0.0144 -0.1730 -0.0532
    1DPPC   PO4 1238  21.866  14.312   6.360 -0.0112 -0.2350 -0.0854
    1DPPC   GL1 1239  21.853  14.483   5.905  0.1233  0.0594 -0.0375
    1DPPC   GL2 1240  22.150  14.704   5.935  0.0572 -0.0769  0.2104
    1DPPC   C1A 1241  21.732  14.528   5.476 -0.0492  0.0768  0.1563
    1DPPC   C2A 1242  21.790  14.624   5.023  0.1655  0.3303  0.0771
    1DPPC   C3A 1243  21.743  14.565   4.601  0.0835 -0.0352  0.1036
    1DPPC   C4A 1244  21.798  14.229   4.244  0.1908 -0.0352  0.2683
    1DPPC   C1B 1245  22.200  14.793   5.447  0.0863  0.0943 -0.0050
    1DPPC   C2B 1246  22.337  14.739   5.020  0.1713 -0.1399  0.1295
    1DPPC   C3B 1247  22.586  14.711   4.637 -0.0997 -0.3727 -0.1158
    1DPPC   C4B 1248  22.705  14.737   4.292  0.0695  0.0109  0.0173
    1DPPC   NC3 1249  12.313  23.154   6.154  0.1855 -0.1986  0.0183
    1DPPC   PO4 1250  12.659  23.148   5.856 -0.2230  0.0437  0.1551
    1DPPC   GL1 1251  12.289  23.028   5.578 -0.2590  0.3444 -0.2329
    1DPPC   GL2 1252  11.941  23.022   5.408 -0.0291  0.1259  0.0636
    1DPPC   C1A 1253  12.281  23.390   5.296 -0.0295 -0.3322  0.1219
    1DPPC   C2A 1254  12.527  23.266   5.025  0.0550 -0.1719  0.0860
    1DPPC   C3A 1255  12.728  22.844   4.894 -0.0631 -0.1300  0.0911
    1DPPC   C4A 1256  12.963  22.402   4.937 -0.0072 -0.0504 -0.1612
    1DPPC   C1B 1257  11.729  22.974   4.961 -0.0558 -0.3786 -0.1293
    1DPPC   C2B 1258  11.567  23.281   4.647  0.1517  0.1436 -0.2171
    1DPPC   C3B 1259  11.318  23.617   4.614  0.1261 -0.1603 -0.0576
    1DPPC   C4B 1260  10.866  23.671   4.369 -0.0001 -0.3123 -0.1843
    1DPPC   NC3 1261   7.878  18.395   6.391  0.0403 -0.1124  0.0727
    1DPPC   PO4 1262   8.118  18.301   6.089  0.1131 -0.1758  0.1790
    1DPPC   GL1 1263   8.504  18.161   6.011 -0.0210 -0.4843 -0.1673
    1DPPC   GL2 1264   8.518  17.861   5.959 -0.1979 -0.0213  0.0903
    1DPPC   C1A 1265   8.775  18.167   5.685 -0.0687 -0.3091 -0.0230
    1DPPC   C2A 1266   8.934  18.472   5.433 -0.0008 -0.1000  0.0127
    1DPPC   C3A 1267   9.052  18.562   4.976 -0.0877 -0.2798 -0.0128
    1DPPC   C4A 1268   9.090  18.410   4.594  0.1835 -0.1339 -0.1963
    1DPPC   C1B 1269   8.445  17.689   5.488  0.1131  0.0405 -0.1059
    1DPPC   C2B 1270   8.417  17.824   5.169 -0.0000  0.1812 -0.3395
    1DPPC   C3B 1271   8.480  17.856   4.759  0.0949  0.1209 -0.2644
    1DPPC   C4B 1272   8.467  18.150   4.405  0.1623 -0.0278  0.0259
    1DPPC   NC3 1273  16.451  18.362   7.032 -0.2113 -0.1124  0.1246
    1DPPC   PO4 1274  16.759  18.290   6.709  0.0003  0.1436  0.1070
    1DPPC   GL1 1275  16.472  18.053   6.484  0.1918 -0.1462 -0.2623
    1DPPC   GL2 1276  16.667  17.814   6.436  0.1726  0.0933  0.0527
    1DPPC   C1A 1277  16.319  18.270   6.185 -0.2443  0.0418  0.3466
    1DPPC   C2A 1278  16.297  18.322   5.797 -0.1968  0.0610 -0.2349
    1DPPC   C3A 1279  16.425  18.477   5.401  0.2164  0.2499 -0.0556
    1DPPC   C4A 1280  16.396  18.476   4.954 -0.0020 -0.2608 -0.0345
    1DPPC   C1B 1281  16.760  17.956   6.057  0.1054 -0.0730  0.1742
    1DPPC   C2B 1282  16.745  18.106   5.650 -0.0686 -0.0223 -0.1140
    1DPPC   C3B 1283  16.847  18.240   5.233  0.2732  0.0792 -0.0780
    1DPPC   C4B 1284  16.840  18.085   4.755 -0.0232  0.0332  0.0170
    1DPPC   NC3 1285  18.121  27.256   6.981  0.1084  0.1244 -0.0082
    1DPPC   PO4 1286  18.243  27.646   6.704  0.0887 -0.0513 -0.0462
    1DPPC   GL1 1287  18.457  27.791   6.350  0.1197 -0.0803 -0.0013
    1DPPC   GL2 1288  18.717  27.867   6.418  0.1815 -0.0840  0.1339
    1DPPC   C1A 1289  18.362  27.939   5.981  0.2998  0.1635 -0.3189
    1DPPC   C2A 1290  18.514  27.720   5.604  0.2553  0.0857 -0.0079
    1DPPC   C3A 1291  18.803  27.582   5.244  0.0195 -0.3083  0.0306
    1DPPC   C4A 1292  19.020  27.213   5.191  0.1377  0.2153 -0.1670
    1DPPC   C1B 1293  18.863  27.989   5.975 -0.0096  0.3140  0.0149
    1DPPC   C2B 1294  19.068  28.056   5.643  0.0739  0.2491 -0.1845
    1DPPC   C3B 1295  19.182  27.882   5.301  0.0254 -0.2479  0.0729
    1DPPC   C4B 1296  19.070  27.900   4.857  0.1468  0.2492 -0.4672
    1DPPC   NC3 1297  29.541  12.963   6.332 -0.0760 -0.1594  0.0733
    1DPPC   PO4 1298  29.953  12.732   6.147  0.2646 -0.0586  0.0897
    1DPPC   GL1 1299  30.052  12.707   5.714 -0.0789  0.3054 -0.0418
    1DPPC   GL2 1300  29.858  12.466   5.409 -0.0956  0.0975 -0.0538
    1DPPC   C1A 1301  30.064  12.933   5.325  0.3332 -0.0469  0.2049
    1DPPC   C2A 1302  30.149  13.196   4.903 -0.1024  0.0046 -0.2961
    1DPPC   C3A 1303  30.493  13.442   4.689 -0.3024 -0.0043 -0.1338
    1DPPC   C4A 1304  30.748  13.403   4.301  0.0489  0.0642 -0.2554
    1DPPC   C1B 1305  29.931  12.595   4.927  0.1226 -0.0207 -0.4562
    1DPPC   C2B 1306  30.024  12.843   4.581  0.0579  0.0022 -0.1294
    1DPPC   C3B 1307  30.057  13.274   4.381 -0.1814  0.2834  0.0371
    1DPPC   C4B 1308  29.681  13.637   4.217  0.0072  0.1182  0.0457
    1DPPC   NC3 1309  16.175  10.407   6.770 -0.2073  0.1183 -0.0751
    1DPPC   PO4 1310  15.874  10.128   6.621  0.0059 -0.2264 -0.0270
    1DPPC   GL1 1311  15.626  10.206   6.278  0.0482 -0.1729 -0.0543
    1DPPC   GL2 1312  15.387   9.991   6.176 -0.1328 -0.1040  0.2457
    1DPPC   C1A 1313  15.633  10.326   5.746  0.0360 -0.0496 -0.3122
    1DPPC   C2A 1314  15.543  10.322   5.324  0.4548 -0.1208  0.0553
    1DPPC   C3A 1315  15.642  10.214   4.868  0.0429 -0.1753 -0.3352
    1DPPC   C4A 1316  15.775  10.299   4.418  0.2595 -0.0052  0.1352
    1DPPC   C1B 1317  15.211   9.987   5.698  0.1178  0.0649 -0.0712
    1DPPC   C2B 1318  15.168   9.983   5.219 -0.0215  0.3898  0.1315
    1DPPC   C3B 1319  14.944   9.899   4.753  0.0980 -0.3386 -0.2542
    1DPPC   C4B 1320  14.616   9.497   4.601 -0.1162  0.3698  0.0615
    1DPPC   NC3 1321  11.591  20.412   6.987  0.0854 -0.2941 -0.2982
    1DPPC   PO4 1322  11.239  20.681   6.756  0.0279  0.2077 -0.1008
    1DPPC   GL1 1323  11.098  20.868   6.437  0.2460 -0.2633 -0.1118
    1DPPC   GL2 1324  11.339  20.672   6.089 -0.3171  0.5362 -0.0120
    1DPPC   C1A 1325  11.012  21.006   6.052  0.0288 -0.1344  0.0192
    1DPPC   C2A 1326  10.802  20.811   5.748 -0.0815 -0.1581  0.0911
    1DPPC   C3A 1327  10.704  20.914   5.248  0.2037  0.2750  0.2924
    1DPPC   C4A 1328  10.478  20.535   4.961  0.0706  0.1265  0.2396
    1DPPC   C1B 1329  11.308  21.027   5.654 -0.0981 -0.2911  0.1098
    1DPPC   C2B 1330  11.250  20.920   5.264  0.1253 -0.0536 -0.2604
    1DPPC   C3B 1331  11.243  20.760   4.812  0.0620  0.5862 -0.1743
    1DPPC   C4B 1332  11.142  20.780   4.351  0.1378 -0.0781  0.0104
    1DPPC   NC3 1333  10.061  19.808   6.516  0.4556 -0.0694  0.0696
    1DPPC   PO4 1334  10.037  19.340   6.473 -0.2123  0.1004 -0.0865
    1DPPC   GL1 1335  10.171  19.444   5.993 -0.0419  0.1117  0.0656
    1DPPC   GL2 1336   9.851  19.618   5.759  0.1762 -0.2905 -0.0477
    1DPPC   C1A 1337  10.248  19.262   5.576  0.0247  0.2235  0.0710
    1DPPC   C2A 1338  10.260  19.164   5.188 -0.0653 -0.5126  0.0820
    1DPPC   C3A 1339  10.478  18.998   4.776 -0.2324  0.1913  0.1718
    1DPPC   C4A 1340  10.628  19.002   4.388  0.0895  0.4920 -0.0206
    1DPPC   C1B 1341   9.931  19.590   5.256 -0.0049 -0.3662 -0.1009
    1DPPC   C2B 1342   9.891  19.731   4.984  0.0713 -0.0394  0.3286
    1DPPC   C3B 1343   9.829  19.788   4.596 -0.0924 -0.1866 -0.1484
    1DPPC   C4B 1344   9.896  19.779   4.143  0.2093  0.4635  0.1419
    1DPPC   NC3 1345  21.333  13.241   6.346 -0.1272 -0.0872 -0.1855
    1DPPC   PO4 1346  21.093  13.444   6.511  0.3755 -0.3388 -0.1047
    1DPPC   GL1 1347  21.226  13.591   6.035 -0.0937 -0.1355 -0.2319
    1DPPC   GL2 1348  21.028  13.873   5.840  0.0875 -0.2063  0.4719
    1DPPC   C1A 1349  21.576  13.530   5.683 -0.1083 -0.1858 -0.0533
    1DPPC   C2A 1350  21.839  13.512   5.359 -0.0879 -0.1230 -0.0077
    1DPPC   C3A 1351  21.774  13.594   4.955 -0.1028  0.1322 -0.1371
    1DPPC   C4A 1352  21.989  13.363   4.572  0.0881 -0.3533  0.0427
    1DPPC   C1B 1353  20.738  13.629   5.659  0.0919  0.1379  0.1067
    1DPPC   C2B 1354  20.692  13.460   5.256  0.0328 -0.4346  0.0475
    1DPPC   C3B 1355  20.970  13.518   4.935  0.2799  0.3051  0.4468
    1DPPC   C4B 1356  21.047  13.543   4.533 -0.0698  0.3352 -0.0141
    1DPPC   NC3 1357   9.297  24.500   6.091  0.4507  0.2236 -0.0186
    1DPPC   PO4 1358   9.588  24.211   5.987 -0.1989  0.0403 -0.2279
    1DPPC   GL1 1359   9.726  23.916   5.604  0.0984 -0.0421 -0.1988
    1DPPC   GL2 1360   9.409  23.913   5.314  0.2246 -0.2586 -0.0818
    1DPPC   C1A 1361   9.795  23.529   5.339  0.0128  0.0157 -0.3732
    1DPPC   C2A 1362   9.714  23.580   4.900  0.2258 -0.2447 -0.2125
    1DPPC   C3A 1363   9.705  23.666   4.514  0.1833  0.1210  0.2973
    1DPPC   C4A 1364   9.864  23.506   4.122 -0.2934 -0.2034 -0.1963
    1DPPC   C1B 1365   8.989  23.855   5.129  0.1753  0.0311 -0.0699
    1DPPC   C2B 1366   8.594  23.938   5.034  0.1115  0.3060  0.3290
    1DPPC   C3B 1367   8.196  24.056   4.804  0.0505 -0.2440  0.0066
    1DPPC   C4B 1368   8.036  24.113   4.382 -0.0108 -0.0343  0.0400
    1DPPC   NC3 1369  16.488  19.384   7.023 -0.3913  0.0685 -0.1606
    1DPPC   PO4 1370  16.927  19.459   7.194 -0.4229 -0.0873  0.0212
    1DPPC   GL1 1371  17.000  19.424   6.766 -0.1750 -0.0320  0.2992
    1DPPC   GL2 1372  16.869  19.202   6.744  0.0950  0.1074  0.1102
    1DPPC   C1A 1373  17.017  19.679   6.477  0.1843  0.0444 -0.1933
    1DPPC   C2A 1374  16.917  20.112   6.360 -0.3038  0.1353 -0.1828
    1DPPC   C3A 1375  16.875  20.115   5.911  0.1502 -0.0200  0.1543
    1DPPC   C4A 1376  16.662  20.270   5.455  0.1208  0.1616  0.0099
    1DPPC   C1B 1377  16.765  18.917   6.505  0.0072  0.1610  0.2031
    1DPPC   C2B 1378  16.700  18.604   6.164  0.3910 -0.2179 -0.3333
    1DPPC   C3B 1379  16.626  18.731   5.778  0.0464  0.0129  0.2516
    1DPPC   C4B 1380  16.403  18.954   5.457  0.1564 -0.0189 -0.1055
    1DPPC   NC3 1381  21.856  16.939   6.556  0.1794 -0.0488  0.1063
    1DPPC   PO4 1382  21.862  16.464   6.473  0.1502  0.0360  0.1083
    1DPPC   GL1 1383  21.633  16.611   6.049 -0.0759  0.2473 -0.4024
    1DPPC   GL2 1384  21.797  16.756   5.920 -0.3845  0.0682  0.0463
    1DPPC   C1A 1385  21.309  16.689   5.759  0.2020 -0.1679 -0.2045
    1DPPC   C2A 1386  21.333  16.733   5.262 -0.2403  0.1685 -0.1474
    1DPPC   C3A 1387  21.144  16.931   4.847 -0.1164  0.0111 -0.0877
    1DPPC   C4A 1388  21.000  16.957   4.454  0.0938 -0.2564 -0.1184
    1DPPC   C1B 1389  21.783  16.922   5.560  0.2113  0.0612 -0.4621
    1DPPC   C2B 1390  21.801  16.656   5.179  0.3027 -0.0016  0.2921
    1DPPC   C3B 1391  22.030  16.544   4.791  0.1080 -0.0501 -0.1958
    1DPPC   C4B 1392  22.149  16.639   4.353  0.1327 -0.1761  0.0624
    1DPPC   NC3 1393  14.613  12.305   7.071 -0.0763  0.0433  0.1231
    1DPPC   PO4 1394  14.697  12.031   6.697 -0.0308  0.1673  0.2528
    1DPPC   GL1 1395  14.669  11.853   6.274  0.0154  0.0535 -0.3739
    1DPPC   GL2 1396  14.998  11.863   6.299 -0.1921  0.0242 -0.2958
    1DPPC   C1A 1397  14.499  11.926   5.933  0.2750  0.0863 -0.2261
    1DPPC   C2A 1398  14.387  11.913   5.535  0.2609  0.0350  0.2274
    1DPPC   C3A 1399  14.306  11.924   5.101  0.0118  0.0309 -0.0042
    1DPPC   C4A 1400  14.185  12.186   4.783  0.0129  0.1432  0.0229
    1DPPC   C1B 1401  15.047  11.855   5.777 -0.0291  0.0736 -0.1568
    1DPPC   C2B 1402  15.129  11.745   5.351 -0.3501  0.1557  0.1308
    1DPPC   C3B 1403  15.033  11.742   4.977 -0.1524 -0.1944 -0.1883
    1DPPC   C4B 1404  15.255  11.693   4.615 -0.0437  0.0717  0.0934
    1DPPC   NC3 1405  14.407  16.937   6.718 -0.3267  0.2806 -0.0909
    1DPPC   PO4 1406  14.117  17.327   6.708 -0.1682  0.0736 -0.0863
    1DPPC   GL1 1407  14.096  17.158   6.402 -0.2274  0.0118  0.1533
    1DPPC   GL2 1408  14.022  16.832   6.361  0.0422  0.2703  0.1920
    1DPPC   C1A 1409  14.185  17.349   5.964  0.0325  0.1419  0.0745
    1DPPC   C2A 1410  14.310  17.315   5.500  0.0928  0.2876  0.2748
    1DPPC   C3A 1411  14.396  17.387   5.035  0.0561 -0.0839  0.1736
    1DPPC   C4A 1412  14.393  17.546   4.658  0.2270  0.0556 -0.2328
    1DPPC   C1B 1413  14.197  16.782   6.084  0.0413  0.4417  0.2175
    1DPPC   C2B 1414  14.371  16.842   5.680 -0.2170 -0.2133  0.0082
    1DPPC   C3B 1415  14.472  16.893   5.256  0.0112  0.0680  0.1797
    1DPPC   C4B 1416  14.695  17.008   4.834 -0.3058 -0.1690 -0.1840
    1DPPC   NC3 1417  16.527  16.705   6.919 -0.2408  0.1327 -0.0416
    1DPPC   PO4 1418  16.743  16.403   6.658  0.0141 -0.0299  0.0594
    1DPPC   GL1 1419  16.530  16.277   6.296 -0.1007  0.0757 -0.0960
    1DPPC   GL2 1420  16.202  16.127   6.407  0.3582 -0.1766  0.0411
    1DPPC   C1A 1421  16.572  16.366   5.887 -0.0249 -0.0171 -0.3358
    1DPPC   C2A 1422  16.624  16.314   5.495  0.4020  0.1375 -0.0908
    1DPPC   C3A 1423  16.514  16.417   5.093  0.0372  0.1184 -0.0037
    1DPPC   C4A 1424  16.538  16.431   4.660 -0.0056  0.2040  0.1370
    1DPPC   C1B 1425  16.055  16.189   5.999 -0.0105  0.2449  0.1438
    1DPPC   C2B 1426  16.092  16.326   5.585  0.2551  0.2629 -0.0014
    1DPPC   C3B 1427  16.089  16.274   5.241 -0.1086  0.0143 -0.0920
    1DPPC   C4B 1428  16.131  16.165   4.821 -0.1599  0.0885 -0.1301
    1DPPC   NC3 1429  11.287  14.889   6.849 -0.2537  0.1211  0.2318
    1DPPC   PO4 1430  11.609  14.519   6.860  0.2584  0.0662  0.2677
    1DPPC   GL1 1431  11.713  14.367   6.482  0.1429 -0.1596  0.0177
    1DPPC   GL2 1432  11.379  14.232   6.352  0.3537  0.0037 -0.2029
    1DPPC   C1A 1433  11.928  14.399   6.087  0.4220 -0.2021  0.1780
    1DPPC   C2A 1434  12.023  14.232   5.728 -0.0223 -0.2867  0.2479
    1DPPC   C3A 1435  11.992  14.100   5.344 -0.2722 -0.0658 -0.0228
    1DPPC   C4A 1436  11.914  14.227   4.935 -0.4030  0.0281 -0.1005
    1DPPC   C1B 1437  11.192  13.850   6.252 -0.0344  0.1744 -0.2582
    1DPPC   C2B 1438  11.412  13.551   5.938  0.2328  0.1055  0.1352
    1DPPC   C3B 1439  11.723  13.247   5.632  0.0947 -0.1316  0.1206
    1DPPC   C4B 1440  11.804  13.159   5.135  0.2022 -0.0285 -0.0509
    1DPPC   NC3 1441  13.590  17.201   6.582 -0.0522  0.0730 -0.0995
    1DPPC   PO4 1442  13.175  16.992   6.596  0.0801 -0.1535 -0.1345
    1DPPC   GL1 1443  13.173  17.143   6.262 -0.1207 -0.2703 -0.2475
    1DPPC   GL2 1444  13.244  17.465   6.159 -0.0863 -0.0532 -0.2999
    1DPPC   C1A 1445  12.892  17.158   5.964 -0.4944 -0.1180  0.3424
    1DPPC   C2A 1446  12.859  17.062   5.469  0.1483 -0.0400 -0.2312
    1DPPC   C3A 1447  12.629  16.912   5.151 -0.1781  0.1453 -0.2604
    1DPPC   C4A 1448  12.643  16.952   4.707  0.0142 -0.3000  0.1962
    1DPPC   C1B 1449  13.329  17.323   5.718  0.0570 -0.0586 -0.2593
    1DPPC   C2B 1450  13.361  17.368   5.203 -0.0033  0.2212 -0.0024
    1DPPC   C3B 1451  13.500  17.200   4.880 -0.0263  0.3160 -0.1070
    1DPPC   C4B 1452  13.401  17.157   4.444  0.2629  0.0461  0.2672
    1DPPC   NC3 1453  12.585  11.200   6.958  0.0566  0.0835  0.0136
    1DPPC   PO4 1454  12.457  11.515   6.865 -0.4133 -0.0042  0.0127
    1DPPC   GL1 1455  12.116  11.371   6.627 -0.2060  0.1155 -0.0992
    1DPPC   GL2 1456  12.266  11.147   6.580 -0.2674 -0.0463  0.1197
    1DPPC   C1A 1457  11.917  11.189   6.151 -0.0100  0.1998  0.1271
    1DPPC   C2A 1458  11.593  10.899   6.024 -0.3457  0.2811 -0.0503
    1DPPC   C3A 1459  11.302  10.848   5.733 -0.0170  0.0873 -0.1425
    1DPPC   C4A 1460  10.895  10.934   5.775  0.0267 -0.1163  0.2439
    1DPPC   C1B 1461  12.367  10.908   6.167  0.0113  0.2385  0.1574
    1DPPC   C2B 1462  12.104  10.809   5.782  0.0884  0.0670  0.0923
    1DPPC   C3B 1463  11.925  10.800   5.412 -0.0628 -0.4435  0.1025
    1DPPC   C4B 1464  11.653  10.439   5.307  0.3468  0.3452  0.0901
    1DPPC   NC3 1465   6.268   2.297   7.706 -0.3372  0.1425 -0.0613
    1DPPC   PO4 1466   6.359   2.556   7.248  0.1256 -0.0772  0.4011
    1DPPC   GL1 1467   6.406   2.805   6.894 -0.0774 -0.1769  0.0846
    1DPPC   GL2 1468   6.337   3.239   6.857  0.1192 -0.1694 -0.1331
    1DPPC   C1A 1469   6.343   2.562   6.486 -0.0941  0.1722 -0.0142
    1DPPC   C2A 1470   6.255   2.609   6.113 -0.0379 -0.0745 -0.1788
    1DPPC   C3A 1471   6.640   2.474   5.846  0.0711 -0.0614  0.0880
    1DPPC   C4A 1472   7.042   2.428   5.685  0.0611  0.2598  0.1048
    1DPPC   C1B 1473   6.343   3.473   6.578  0.0796  0.6670 -0.1021
    1DPPC   C2B 1474   6.339   3.574   6.132  0.2663  0.0443  0.0274
    1DPPC   C3B 1475   6.251   3.581   5.704 -0.1790 -0.0173  0.3215
    1DPPC   C4B 1476   6.360   3.610   5.208 -0.0368 -0.4381 -0.2388
    1DPPC   NC3 1477  20.972  13.937   6.385  0.0790  0.1714 -0.1084
    1DPPC   PO4 1478  20.560  14.103   6.270  0.3356  0.0020 -0.3181
    1DPPC   GL1 1479  20.209  13.958   5.947  0.0018 -0.0776  0.1086
    1DPPC   GL2 1480  20.106  13.599   6.021 -0.2872  0.0452 -0.0955
    1DPPC   C1A 1481  20.101  14.141   5.534  0.0537 -0.1945 -0.0558
    1DPPC   C2A 1482  20.148  14.211   5.165 -0.0536 -0.1308  0.1612
    1DPPC   C3A 1483  20.096  14.078   4.785  0.1291 -0.1801  0.0208
    1DPPC   C4A 1484  20.206  14.023   4.388  0.0601 -0.0898  0.1649
    1DPPC   C1B 1485  20.253  13.659   5.547 -0.3605 -0.3785 -0.0958
    1DPPC   C2B 1486  20.309  13.728   5.051  0.0020  0.2185 -0.1719
    1DPPC   C3B 1487  20.531  13.574   4.669 -0.0542 -0.1722 -0.3583
    1DPPC   C4B 1488  20.495  13.619   4.269  0.1733 -0.0399 -0.0101
    1DPPC   NC3 1489  12.663  21.303   6.573 -0.0494 -0.0378  0.0624
    1DPPC   PO4 1490  12.430  20.870   6.404  0.0156  0.1034  0.0664
    1DPPC   GL1 1491  12.446  20.707   5.991 -0.2000  0.0019  0.0780
    1DPPC   GL2 1492  12.522  20.863   5.743  0.1022  0.2549 -0.0243
    1DPPC   C1A 1493  12.266  20.416   5.756 -0.0030 -0.1877 -0.0432
    1DPPC   C2A 1494  12.302  20.187   5.303  0.0760  0.4113 -0.0238
    1DPPC   C3A 1495  12.390  20.457   4.914  0.2707  0.0269 -0.0406
    1DPPC   C4A 1496  12.459  20.779   4.634 -0.0624  0.1536 -0.2251
    1DPPC   C1B 1497  12.421  20.779   5.267 -0.2294  0.1446 -0.0489
    1DPPC   C2B 1498  12.093  20.902   4.949 -0.0676 -0.2220  0.1849
    1DPPC   C3B 1499  11.786  20.802   4.624 -0.1324 -0.0085 -0.3729
    1DPPC   C4B 1500  11.648  20.547   4.314 -0.3419 -0.0957 -0.0594
    1DPPC   NC3 1501   9.735  11.292   7.357 -0.1669  0.2693 -0.0932
    1DPPC   PO4 1502   9.264  11.245   7.523 -0.1669 -0.0566 -0.1413
    1DPPC   GL1 1503   9.251  11.383   7.114  0.2789  0.1767  0.0436
    1DPPC   GL2 1504   9.160  11.673   7.009  0.2556  0.0547 -0.0809
    1DPPC   C1A 1505   9.403  11.358   6.620 -0.0562 -0.0233 -0.4227
    1DPPC   C2A 1506   9.394  11.256   6.154  0.1697 -0.0403 -0.1689
    1DPPC   C3A 1507   9.259  11.443   5.888  0.1319 -0.2603  0.2181
    1DPPC   C4A 1508   8.891  11.515   5.643  0.2416 -0.0111  0.0840
    1DPPC   C1B 1509   8.897  11.736   6.688 -0.0877  0.1970 -0.1661
    1DPPC   C2B 1510   8.949  11.480   6.303  0.1217  0.1208 -0.1281
    1DPPC   C3B 1511   8.832  11.125   6.004  0.2716  0.1696 -0.2848
    1DPPC   C4B 1512   8.676  10.780   5.790  0.0731  0.0312 -0.0112
    1DPPC   NC3 1513   3.217  15.743   5.864 -0.0796  0.3144  0.0111
    1DPPC   PO4 1514   3.208  15.439   5.606  0.0303  0.0639  0.2681
    1DPPC   GL1 1515   3.111  15.463   5.181  0.1078  0.2531  0.3299
    1DPPC   GL2 1516   3.093  15.784   5.016  0.0298 -0.2150  0.0563
    1DPPC   C1A 1517   2.798  15.429   4.903 -0.3059 -0.2074  0.0937
    1DPPC   C2A 1518   2.580  15.446   4.490 -0.0018 -0.0034 -0.2431
    1DPPC   C3A 1519   2.475  15.783   4.243  0.2948 -0.0988  0.2211
    1DPPC   C4A 1520   2.327  16.174   4.320 -0.1772 -0.3664  0.0732
    1DPPC   C1B 1521   3.040  15.791   4.575 -0.2345  0.1304 -0.0009
    1DPPC   C2B 1522   2.898  15.984   4.137 -0.2318  0.0562  0.2553
    1DPPC   C3B 1523   2.805  15.678   3.828  0.1142  0.1206 -0.0335
    1DPPC   C4B 1524   2.828  15.198   3.996 -0.0252 -0.3681  0.2492
    1DPPC   NC3 1525  18.580   8.336   6.615 -0.1089  0.0664 -0.0727
    1DPPC   PO4 1526  18.408   7.950   6.674 -0.1402 -0.3345  0.2396
    1DPPC   GL1 1527  18.432   8.017   6.122  0.1795  0.0526  0.1266
    1DPPC   GL2 1528  18.659   7.820   6.026  0.0449  0.1108  0.2697
    1DPPC   C1A 1529  18.256   8.128   5.675 -0.1266 -0.1474 -0.0966
    1DPPC   C2A 1530  18.254   8.016   5.269 -0.0295  0.1742  0.1512
    1DPPC   C3A 1531  18.195   7.715   4.949  0.2316  0.1036  0.1535
    1DPPC   C4A 1532  18.138   7.631   4.453  0.0485 -0.1927 -0.3311
    1DPPC   C1B 1533  18.762   7.850   5.507 -0.1029  0.2440  0.0111
    1DPPC   C2B 1534  18.625   7.807   5.070 -0.1038  0.0079 -0.0125
    1DPPC   C3B 1535  18.586   7.790   4.633  0.2367  0.3458  0.3303
    1DPPC   C4B 1536  18.652   7.419   4.339  0.2430  0.1510  0.1227
    1DPPC   NC3 1537  17.495  17.885   7.179 -0.1416 -0.0172  0.2986
    1DPPC   PO4 1538  17.513  17.429   6.954  0.1086  0.0147 -0.3987
    1DPPC   GL1 1539  17.711  17.611   6.600 -0.0800 -0.0031  0.2721
    1DPPC   GL2 1540  17.489  17.765   6.525 -0.0947  0.0827  0.1621
    1DPPC   C1A 1541  17.922  17.776   6.203  0.0076  0.0525 -0.1197
    1DPPC   C2A 1542  18.011  18.045   5.876  0.0937  0.0334  0.0516
    1DPPC   C3A 1543  17.929  18.081   5.512  0.0665  0.1889  0.2763
    1DPPC   C4A 1544  17.830  17.923   5.189 -0.1661  0.1074  0.0282
    1DPPC   C1B 1545  17.229  17.677   6.097  0.2213 -0.3291  0.3427
    1DPPC   C2B 1546  17.199  17.863   5.674  0.0193  0.0414 -0.0259
    1DPPC   C3B 1547  17.301  18.135   5.446 -0.0380  0.5116  0.1444
    1DPPC   C4B 1548  17.230  18.528   5.124  0.0499 -0.0445  0.3920
    1DPPC   NC3 1549  19.957   6.269   6.418 -0.0251  0.0682 -0.1119
    1DPPC   PO4 1550  19.500   6.241   6.341 -0.0588 -0.0455  0.0722
    1DPPC   GL1 1551  19.629   6.543   6.058 -0.0265 -0.1420 -0.2106
    1DPPC   GL2 1552  19.771   6.905   6.159  0.0678  0.1564 -0.0859
    1DPPC   C1A 1553  19.550   6.794   5.730 -0.3503  0.1235 -0.0482
    1DPPC   C2A 1554  19.653   6.801   5.319  0.0617  0.2604 -0.3735
    1DPPC   C3A 1555  19.929   6.827   5.056  0.0668 -0.1184 -0.1545
    1DPPC   C4A 1556  20.312   6.716   4.772 -0.0942  0.2149  0.0080
    1DPPC   C1B 1557  19.983   6.993   5.802  0.0014 -0.2055  0.0003
    1DPPC   C2B 1558  19.930   7.169   5.376 -0.1088 -0.1073 -0.2298
    1DPPC   C3B 1559  19.720   7.367   5.183 -0.0906  0.2226 -0.1102
    1DPPC   C4B 1560  19.549   7.441   4.677  0.0405 -0.1921  0.1862
    1DPPC   NC3 1561  14.147  19.500   7.122  0.0109 -0.2875 -0.3316
    1DPPC   PO4 1562  14.420  19.490   6.629  0.0245  0.0672  0.2319
    1DPPC   GL1 1563  14.558  19.203   6.288  0.1993 -0.0829 -0.0433
    1DPPC   GL2 1564  14.865  19.008   6.382 -0.3392  0.4303  0.0615
    1DPPC   C1A 1565  14.459  19.247   5.913 -0.3372  0.1871 -0.1252
    1DPPC   C2A 1566  14.488  19.283   5.510 -0.2980 -0.1078  0.2003
    1DPPC   C3A 1567  14.681  19.328   5.153  0.1301 -0.1254  0.2800
    1DPPC   C4A 1568  14.784  19.264   4.791 -0.3097 -0.0243  0.0833
    1DPPC   C1B 1569  14.970  19.140   5.947  0.0777  0.0354  0.1076
    1DPPC   C2B 1570  14.975  19.144   5.528  0.0852 -0.1145 -0.0293
    1DPPC   C3B 1571  15.123  19.023   5.113  0.3051 -0.2113  0.4498
    1DPPC   C4B 1572  15.182  19.001   4.712  0.1751 -0.0447 -0.0331
    1DPPC   NC3 1573  11.038   7.198   7.272  0.0008  0.3159 -0.0503
    1DPPC   PO4 1574  11.400   7.496   7.321 -0.1383  0.0290  0.0557
    1DPPC   GL1 1575  11.451   7.580   6.850 -0.0461  0.3912 -0.2251
    1DPPC   GL2 1576  11.583   7.915   6.702 -0.2070 -0.1823 -0.0517
    1DPPC   C1A 1577  11.428   7.392   6.517 -0.4334  0.0608 -0.0647
    1DPPC   C2A 1578  11.293   7.480   6.155 -0.1819  0.1781  0.0323
    1DPPC   C3A 1579  10.996   7.375   5.930 -0.0429 -0.0950 -0.2433
    1DPPC   C4A 1580  10.694   7.472   5.612 -0.0314  0.1639 -0.0669
    1DPPC   C1B 1581  11.445   7.952   6.377  0.0555  0.2023  0.1252
    1DPPC   C2B 1582  11.505   8.049   5.915  0.0806 -0.0982  0.2343
    1DPPC   C3B 1583  11.296   8.031   5.532 -0.0462 -0.3622 -0.2113
    1DPPC   C4B 1584  10.985   8.039   5.240  0.1041 -0.0664  0.1958
    1DPPC   NC3 1585   9.298  15.197   6.841 -0.0293 -0.3055  0.0807
    1DPPC   PO4 1586   9.083  15.547   6.515  0.2263 -0.0789  0.0214
    1DPPC   GL1 1587   9.319  15.510   6.171  0.0720  0.0778 -0.2155
    1DPPC   GL2 1588   9.152  15.826   6.045  0.0554  0.3156 -0.1881
    1DPPC   C1A 1589   9.501  15.488   5.789  0.1212 -0.1989  0.0459
    1DPPC   C2A 1590   9.555  15.300   5.417  0.1012 -0.0951 -0.2938
    1DPPC   C3A 1591   9.612  14.962   5.106  0.0187  0.3512 -0.0065
    1DPPC   C4A 1592   9.505  14.867   4.630  0.3426  0.0783  0.2891
    1DPPC   C1B 1593   8.994  15.766   5.736  0.2094  0.1073  0.2797
    1DPPC   C2B 1594   9.059  15.621   5.383  0.2226 -0.0255  0.0067
    1DPPC   C3B 1595   9.202  15.419   5.026  0.0232 -0.1966 -0.1303
    1DPPC   C4B 1596   9.160  15.477   4.661 -0.1508  0.1740 -0.0945
    1DPPC   NC3 1597  16.852  12.662   6.827 -0.4034  0.1357 -0.1252
    1DPPC   PO4 1598  17.065  13.091   6.766 -0.0430  0.1005 -0.1987
    1DPPC   GL1 1599  17.235  13.125   6.424 -0.1056 -0.1330 -0.0566
    1DPPC   GL2 1600  17.059  13.003   6.234 -0.1062  0.0000 -0.0209
    1DPPC   C1A 1601  17.404  13.354   6.016  0.0847 -0.3171 -0.1765
    1DPPC   C2A 1602  17.307  13.705   5.707 -0.0173 -0.0384  0.2902
    1DPPC   C3A 1603  17.270  13.698   5.314 -0.0357 -0.0408 -0.1565
    1DPPC   C4A 1604  17.166  13.627   4.828  0.3385 -0.4632 -0.1973
    1DPPC   C1B 1605  17.141  12.809   5.866  0.1154 -0.2285  0.0030
    1DPPC   C2B 1606  17.169  12.731   5.430 -0.1784 -0.1414 -0.0139
    1DPPC   C3B 1607  17.185  12.768   5.038 -0.1561 -0.0423  0.1304
    1DPPC   C4B 1608  17.048  12.775   4.619 -0.2926 -0.1933  0.0369
    1DPPC   NC3 1609   8.689  17.891   6.408 -0.0247  0.0280 -0.0502
    1DPPC   PO4 1610   9.108  18.004   6.533  0.2570 -0.0615  0.3192
    1DPPC   GL1 1611   9.118  18.071   6.111  0.2462  0.3148  0.1604
    1DPPC   GL2 1612   9.467  17.995   6.173  0.0835 -0.1035 -0.2274
    1DPPC   C1A 1613   9.286  18.318   5.746  0.1469 -0.0344  0.0904
    1DPPC   C2A 1614   9.450  18.225   5.377  0.0938  0.0672 -0.0081
    1DPPC   C3A 1615   9.417  18.032   4.981 -0.3212 -0.0832  0.0503
    1DPPC   C4A 1616   9.510  18.106   4.561  0.0847 -0.0808  0.0383
    1DPPC   C1B 1617   9.635  17.981   5.760  0.0502  0.0808 -0.0666
    1DPPC   C2B 1618   9.683  17.801   5.301  0.1142  0.3623  0.0039
    1DPPC   C3B 1619   9.872  17.780   4.973  0.4273 -0.2770  0.0368
    1DPPC   C4B 1620   9.858  17.813   4.663  0.0131 -0.1277  0.2122
    1DPPC   NC3 1621   8.574  20.055   6.003  0.2902  0.0304  0.1546
    1DPPC   PO4 1622   8.664  20.457   5.991  0.1653 -0.0466  0.0628
    1DPPC   GL1 1623   8.959  20.274   5.669  0.0721  0.0135 -0.1103
    1DPPC   GL2 1624   8.868  19.954   5.564 -0.2146  0.2274  0.0108
    1DPPC   C1A 1625   9.271  20.331   5.455  0.1162  0.0761  0.1145
    1DPPC   C2A 1626   9.483  20.284   5.001  0.1469 -0.2191  0.2285
    1DPPC   C3A 1627   9.643  20.336   4.616 -0.1866 -0.0953 -0.2460
    1DPPC   C4A 1628  10.042  20.415   4.631 -0.3311 -0.4378 -0.2428
    1DPPC   C1B 1629   8.978  20.049   5.150  0.4634  0.0861  0.0906
    1DPPC   C2B 1630   9.134  20.159   4.696 -0.1730 -0.1553 -0.0076
    1DPPC   C3B 1631   9.242  20.430   4.257  0.0544 -0.2635 -0.0689
    1DPPC   C4B 1632   9.110  20.479   3.870 -0.0934  0.2008 -0.0741
    1DPPC   NC3 1633  18.790  20.829   7.668  0.2031  0.1052 -0.1490
    1DPPC   PO4 1634  19.101  21.039   7.239 -0.1757 -0.0741  0.0238
    1DPPC   GL1 1635  19.187  21.161   6.866 -0.2891  0.3652  0.0805
    1DPPC   GL2 1636  19.256  21.491   6.815 -0.2926  0.0081  0.0342
    1DPPC   C1A 1637  19.498  21.224   6.481  0.0973  0.0175 -0.1141
    1DPPC   C2A 1638  19.843  21.372   6.344 -0.1779 -0.1847 -0.4124
    1DPPC   C3A 1639  20.008  21.509   5.839 -0.0766  0.2002  0.0918
    1DPPC   C4A 1640  20.366  21.804   5.730 -0.0232 -0.1495  0.1133
    1DPPC   C1B 1641  18.978  21.333   6.397 -0.1232 -0.0542 -0.0139
    1DPPC   C2B 1642  18.822  21.406   5.963  0.3796 -0.0331  0.3053
    1DPPC   C3B 1643  18.984  21.477   5.628 -0.2443 -0.0002  0.1844
    1DPPC   C4B 1644  18.808  21.394   5.185 -0.0383  0.3581 -0.0673
    1DPPC   NC3 1645  18.865  13.391   6.755 -0.0544  0.1162 -0.0510
    1DPPC   PO4 1646  18.878  13.843   6.653 -0.0117  0.0752 -0.0538
    1DPPC   GL1 1647  18.921  13.699   6.219  0.2646  0.0029 -0.1484
    1DPPC   GL2 1648  18.805  13.963   5.933  0.4546 -0.3112  0.4354
    1DPPC   C1A 1649  19.160  13.541   5.886 -0.2957 -0.0267 -0.0814
    1DPPC   C2A 1650  19.428  13.389   5.603  0.2107 -0.0813 -0.2141
    1DPPC   C3A 1651  19.519  13.221   5.190 -0.1819 -0.0242  0.2224
    1DPPC   C4A 1652  19.445  13.079   4.778  0.3856  0.0570  0.2962
    1DPPC   C1B 1653  18.770  13.951   5.407  0.1213 -0.1932 -0.1262
    1DPPC   C2B 1654  18.833  13.908   4.985  0.0525 -0.3391 -0.0734
    1DPPC   C3B 1655  18.719  13.831   4.554 -0.2492  0.1222  0.2168
    1DPPC   C4B 1656  18.412  13.765   4.274 -0.0031 -0.3793 -0.1269
    1DPPC   NC3 1657  19.199  10.069   6.727 -0.1614 -0.1111  0.1279
    1DPPC   PO4 1658  18.912  10.183   6.423  0.2825 -0.3370  0.0743
    1DPPC   GL1 1659  18.676  10.129   6.049  0.1806  0.2851 -0.0638
    1DPPC   GL2 1660  18.502  10.325   6.093  0.0053 -0.2397  0.0334
    1DPPC   C1A 1661  18.596  10.146   5.563  0.1937 -0.1794 -0.1995
    1DPPC   C2A 1662  18.569  10.151   5.229  0.0994  0.1415  0.3560
    1DPPC   C3A 1663  18.559  10.141   4.842 -0.0951  0.1855 -0.0591
    1DPPC   C4A 1664  18.708  10.458   4.532 -0.0709  0.1036 -0.0108
    1DPPC   C1B 1665  18.234  10.415   5.730 -0.2105 -0.0978 -0.0546
    1DPPC   C2B 1666  18.128  10.354   5.404  0.0239  0.4057  0.1317
    1DPPC   C3B 1667  17.980  10.281   5.019  0.0787  0.1829  0.3163
    1DPPC   C4B 1668  17.951  10.169   4.626  0.2047 -0.3002 -0.0620
    1DPPC   NC3 1669   8.728  13.340   6.915 -0.1541 -0.2190  0.1348
    1DPPC   PO4 1670   8.239  13.194   6.883 -0.1479  0.1742 -0.0246
    1DPPC   GL1 1671   8.476  13.166   6.502  0.0772 -0.1889 -0.2891
    1DPPC   GL2 1672   8.479  12.801   6.448  0.2612  0.2060  0.1048
    1DPPC   C1A 1673   8.523  13.114   6.035  0.3144 -0.3422  0.1506
    1DPPC   C2A 1674   8.670  12.976   5.654 -0.0504 -0.0453  0.0960
    1DPPC   C3A 1675   8.908  12.823   5.334 -0.2505  0.1325 -0.2405
    1DPPC   C4A 1676   9.068  13.170   5.098  0.2483 -0.1682 -0.1036
    1DPPC   C1B 1677   8.776  12.713   6.200  0.0715  0.2713 -0.0366
    1DPPC   C2B 1678   8.981  12.673   5.888  0.1760  0.4351  0.2105
    1DPPC   C3B 1679   9.153  12.473   5.572  0.2088 -0.0636 -0.0107
    1DPPC   C4B 1680   9.309  12.428   5.184  0.1201 -0.1119  0.3469
    1DPPC   NC3 1681  10.549  18.725   6.299 -0.4431 -0.0817 -0.1287
    1DPPC   PO4 1682  10.538  19.174   6.289 -0.1139 -0.2425  0.1462
    1DPPC   GL1 1683  10.558  19.009   5.861 -0.2550 -0.3112  0.2219
    1DPPC   GL2 1684  10.881  19.122   5.877 -0.1163  0.0803 -0.0553
    1DPPC   C1A 1685  10.593  18.885   5.515  0.1623  0.2288 -0.0798
    1DPPC   C2A 1686  10.793  18.631   5.284  0.3335 -0.2158 -0.0769
    1DPPC   C3A 1687  10.983  18.612   4.855 -0.3220  0.3111  0.1175
    1DPPC   C4A 1688  11.042  18.767   4.555 -0.1986 -0.1196 -0.2346
    1DPPC   C1B 1689  11.179  19.364   5.771  0.0590 -0.0288  0.4018
    1DPPC   C2B 1690  11.337  19.664   5.409 -0.2043  0.1575 -0.0293
    1DPPC   C3B 1691  11.528  19.886   5.110  0.1245  0.2524  0.1938
    1DPPC   C4B 1692  11.723  19.673   4.736  0.0021  0.1644 -0.0238
    1DPPC   NC3 1693  15.102  12.233   6.595 -0.0968 -0.1899 -0.1585
    1DPPC   PO4 1694  15.132  12.652   6.467 -0.0023 -0.0024 -0.2432
    1DPPC   GL1 1695  15.238  12.865   6.062  0.0660 -0.0383  0.0344
    1DPPC   GL2 1696  15.479  13.133   5.992  0.1271  0.0706  0.1699
    1DPPC   C1A 1697  15.138  12.655   5.736 -0.1926  0.0287 -0.1667
    1DPPC   C2A 1698  15.069  12.640   5.312 -0.3875 -0.2287  0.0854
    1DPPC   C3A 1699  14.911  12.843   4.910 -0.1472 -0.1317  0.0448
    1DPPC   C4A 1700  14.757  12.586   4.497 -0.0726  0.2532 -0.3504
    1DPPC   C1B 1701  15.673  12.825   5.721  0.3693 -0.1824  0.0018
    1DPPC   C2B 1702  15.670  12.835   5.316  0.0483 -0.0055  0.1305
    1DPPC   C3B 1703  15.536  12.654   4.940  0.0155 -0.1889 -0.1039
    1DPPC   C4B 1704  15.255  12.576   4.555 -0.4006  0.0419  0.0037
    1DPPC   NC3 1705  18.472  26.094   7.078  0.2324  0.0388 -0.0996
    1DPPC   PO4 1706  18.642  26.182   6.708  0.3511 -0.0673 -0.1407
    1DPPC   GL1 1707  18.820  26.313   6.383  0.0744 -0.2808 -0.0776
    1DPPC   GL2 1708  18.833  26.066   6.162  0.2267 -0.1722  0.1177
    1DPPC   C1A 1709  18.735  26.485   5.918  0.0833 -0.0995 -0.2772
    1DPPC   C2A 1710  18.705  26.567   5.532  0.0832  0.1731  0.0214
    1DPPC   C3A 1711  18.971  26.718   5.210  0.0298  0.1475 -0.0343
    1DPPC   C4A 1712  19.093  26.919   4.795 -0.0506  0.0423  0.0450
    1DPPC   C1B 1713  18.982  26.091   5.728 -0.1931  0.0267  0.3158
    1DPPC   C2B 1714  19.245  26.376   5.515 -0.2067 -0.0413 -0.1193
    1DPPC   C3B 1715  19.495  26.619   5.293  0.1156  0.1800  0.0528
    1DPPC   C4B 1716  19.491  26.996   5.094 -0.1504  0.1029  0.0344
    1DPPC   NC3 1717   3.642  18.536   6.058 -0.2063  0.1751  0.3133
    1DPPC   PO4 1718   3.608  18.196   5.707 -0.2426  0.3077  0.2604
    1DPPC   GL1 1719   3.627  18.287   5.275 -0.4371 -0.4021 -0.1135
    1DPPC   GL2 1720   3.886  18.346   5.190 -0.0325  0.2649  0.0807
    1DPPC   C1A 1721   3.382  18.459   5.002  0.0305 -0.0911 -0.2240
    1DPPC   C2A 1722   3.274  18.220   4.664 -0.2371  0.1512 -0.0445
    1DPPC   C3A 1723   3.106  17.892   4.267 -0.0664  0.2848  0.0920
    1DPPC   C4A 1724   2.759  17.902   4.207  0.1064 -0.1262  0.3161
    1DPPC   C1B 1725   3.843  18.376   4.743 -0.2241 -0.0613  0.0039
    1DPPC   C2B 1726   3.916  18.468   4.255  0.0061 -0.2033  0.0922
    1DPPC   C3B 1727   3.990  18.313   3.886 -0.0120 -0.2631 -0.2847
    1DPPC   C4B 1728   4.268  18.324   3.584  0.0248 -0.0634 -0.0552
    1DPPC   NC3 1729  21.477  18.378   6.856 -0.2288 -0.1190 -0.0624
    1DPPC   PO4 1730  21.460  18.827   6.894  0.1829  0.3645 -0.0119
    1DPPC   GL1 1731  21.482  19.064   6.500  0.1392 -0.2798  0.0701
    1DPPC   GL2 1732  21.734  19.209   6.341  0.4435  0.0243 -0.1498
    1DPPC   C1A 1733  21.197  19.032   6.091  0.1172  0.0089  0.0332
    1DPPC   C2A 1734  20.917  19.061   5.769 -0.0810 -0.0660  0.2266
    1DPPC   C3A 1735  20.693  19.362   5.476  0.0321 -0.0929 -0.2137
    1DPPC   C4A 1736  20.433  19.377   5.068  0.0176 -0.0323 -0.0871
    1DPPC   C1B 1737  21.668  19.069   5.884 -0.1571 -0.3262  0.0145
    1DPPC   C2B 1738  21.391  19.009   5.584  0.1472 -0.0194  0.0691
    1DPPC   C3B 1739  21.047  18.711   5.322  0.0481  0.1746 -0.2140
    1DPPC   C4B 1740  20.635  18.882   5.294  0.1102  0.0686  0.1509
    1DPPC   NC3 1741  12.727  17.315   6.600  0.1018  0.1982 -0.4636
    1DPPC   PO4 1742  12.664  17.793   6.632  0.0637  0.1479  0.0415
    1DPPC   GL1 1743  12.348  17.945   6.335 -0.2041 -0.3041  0.3976
    1DPPC   GL2 1744  12.123  17.735   6.202 -0.1103  0.0850 -0.0298
    1DPPC   C1A 1745  12.388  18.104   5.878 -0.0979  0.2304  0.2451
    1DPPC   C2A 1746  12.350  17.928   5.454 -0.1417 -0.1467  0.0214
    1DPPC   C3A 1747  12.429  17.856   5.088 -0.0414 -0.0213 -0.1028
    1DPPC   C4A 1748  12.722  17.840   4.764  0.0689  0.0391  0.0195
    1DPPC   C1B 1749  11.963  17.775   5.817  0.1043 -0.3774 -0.1559
    1DPPC   C2B 1750  11.863  17.688   5.539 -0.0427 -0.0735  0.0863
    1DPPC   C3B 1751  11.869  17.668   5.138 -0.1044 -0.0129 -0.1829
    1DPPC   C4B 1752  11.959  17.630   4.823  0.0018  0.2492 -0.0429
    1DPPC   NC3 1753  16.538  21.669   7.238 -0.2029  0.0986 -0.0664
    1DPPC   PO4 1754  16.693  22.098   7.123  0.1419 -0.0074  0.0988
    1DPPC   GL1 1755  16.934  22.043   6.849 -0.0808 -0.2768 -0.3187
    1DPPC   GL2 1756  16.607  22.094   6.511 -0.2854  0.1073 -0.0256
    1DPPC   C1A 1757  17.088  22.180   6.410  0.0291  0.0627  0.0826
    1DPPC   C2A 1758  17.279  21.937   6.103 -0.0426  0.1172 -0.0344
    1DPPC   C3A 1759  17.383  21.919   5.704  0.1652  0.0895  0.0448
    1DPPC   C4A 1760  17.562  21.944   5.295 -0.1881  0.1168 -0.1840
    1DPPC   C1B 1761  16.691  21.920   6.109  0.3990 -0.0691 -0.1162
    1DPPC   C2B 1762  16.836  21.901   5.699 -0.1105  0.1623 -0.3128
    1DPPC   C3B 1763  17.006  21.947   5.329  0.1083 -0.0155 -0.1084
    1DPPC   C4B 1764  17.172  21.715   5.021 -0.0628 -0.4650  0.0814
    1DPPC   NC3 1765  13.069  13.901   7.355 -0.1811  0.2651  0.3214
    1DPPC   PO4 1766  12.742  13.958   7.100  0.3091 -0.2569 -0.0537
    1DPPC   GL1 1767  12.678  13.872   6.642  0.0511  0.0793 -0.0424
    1DPPC   GL2 1768  12.825  13.941   6.375 -0.1588  0.1882 -0.2420
    1DPPC   C1A 1769  12.527  13.503   6.559  0.4196  0.0848  0.3047
    1DPPC   C2A 1770  12.353  13.299   6.282  0.0043  0.1361  0.1571
    1DPPC   C3A 1771  12.247  13.237   5.827  0.1097 -0.0449 -0.1392
    1DPPC   C4A 1772  12.203  13.271   5.422 -0.2288  0.3451  0.0971
    1DPPC   C1B 1773  12.856  13.954   5.949  0.2075 -0.0269 -0.2502
    1DPPC   C2B 1774  12.789  13.872   5.559 -0.3851 -0.0265 -0.0915
    1DPPC   C3B 1775  12.790  13.918   5.218  0.1934  0.1878  0.1411
    1DPPC   C4B 1776  12.909  14.135   4.930 -0.1475 -0.0051  0.4820
    1DPPC   NC3 1777  20.051  14.260   6.309 -0.1565  0.2419 -0.0774
    1DPPC   PO4 1778  19.685  14.351   6.291 -0.1270 -0.0905 -0.1389
    1DPPC   GL1 1779  19.713  14.422   5.926  0.1864  0.3815 -0.2044
    1DPPC   GL2 1780  19.926  14.755   5.746  0.1700  0.1221  0.0316
    1DPPC   C1A 1781  19.556  14.253   5.618 -0.1122  0.1664  0.1702
    1DPPC   C2A 1782  19.558  14.117   5.332  0.0791  0.1292  0.0319
    1DPPC   C3A 1783  19.395  14.048   5.023 -0.1245 -0.4147 -0.2680
    1DPPC   C4A 1784  19.188  13.923   4.677 -0.0970  0.0413 -0.0766
    1DPPC   C1B 1785  19.977  14.693   5.322 -0.3839  0.2118  0.2254
    1DPPC   C2B 1786  19.897  14.597   4.848  0.0274  0.1752  0.1465
    1DPPC   C3B 1787  19.909  14.576   4.449  0.1569  0.3459  0.2081
    1DPPC   C4B 1788  20.187  14.556   4.113 -0.0949 -0.1199  0.2501
    1DPPC   NC3 1789  22.338  14.379   6.616 -0.0336 -0.0887  0.0034
    1DPPC   PO4 1790  22.570  14.034   6.326  0.2101 -0.0740  0.0479
    1DPPC   GL1 1791  22.270  14.149   5.938 -0.2068 -0.0874 -0.1118
    1DPPC   GL2 1792  22.089  13.836   6.010  0.0594 -0.0124 -0.1705
    1DPPC   C1A 1793  21.996  14.059   5.568 -0.0555  0.1528  0.0070
    1DPPC   C2A 1794  21.735  14.047   5.273 -0.0589 -0.2352  0.2280
    1DPPC   C3A 1795  21.843  14.162   4.906 -0.1711  0.0405  0.0347
    1DPPC   C4A 1796  22.249  14.281   4.637  0.1119 -0.1732  0.1123
    1DPPC   C1B 1797  22.263  13.635   5.589 -0.0287 -0.1469  0.3071
    1DPPC   C2B 1798  22.248  13.811   5.161  0.0050  0.2377  0.2514
    1DPPC   C3B 1799  22.215  13.782   4.797  0.0414  0.2601 -0.0010
    1DPPC   C4B 1800  22.217  13.860   4.408 -0.0359 -0.2166 -0.2312
    1DPPC   NC3 1801   9.730  12.899   7.532 -0.3588 -0.1276 -0.0996
    1DPPC   PO4 1802   9.500  13.092   7.192  0.3528 -0.1143  0.2098
    1DPPC   GL1 1803   9.370  13.046   6.720 -0.3164  0.1927  0.0360
    1DPPC   GL2 1804   9.130  13.238   6.549  0.5644  0.1250  0.1027
    1DPPC   C1A 1805   9.544  12.977   6.257 -0.0706 -0.2742  0.0293
    1DPPC   C2A 1806   9.481  12.856   5.825  0.0414  0.1328  0.0454
    1DPPC   C3A 1807   9.470  12.874   5.389  0.0648 -0.2286 -0.1231
    1DPPC   C4A 1808   9.597  13.144   5.058  0.0637 -0.0577  0.0383
    1DPPC   C1B 1809   9.065  13.070   6.166 -0.1971  0.0010  0.0789
    1DPPC   C2B 1810   9.161  13.223   5.676 -0.0984 -0.3378  0.1452
    1DPPC   C3B 1811   9.402  13.449   5.372 -0.0027  0.3799  0.0180
    1DPPC   C4B 1812   9.662  13.636   5.238 -0.1246  0.3133  0.0852
    1DPPC   NC3 1813  23.262  15.844   6.225 -0.1398  0.1588  0.0487
    1DPPC   PO4 1814  23.113  16.102   5.949 -0.2367  0.1373  0.0500
    1DPPC   GL1 1815  23.319  15.971   5.712 -0.1240 -0.0712 -0.0831
    1DPPC   GL2 1816  23.534  16.138   5.552  0.0572  0.0530 -0.0991
    1DPPC   C1A 1817  23.360  15.753   5.333  0.3115 -0.1160 -0.2284
    1DPPC   C2A 1818  23.204  15.347   5.271 -0.1722  0.1190 -0.1403
    1DPPC   C3A 1819  23.042  15.141   4.833  0.0496 -0.0688 -0.0047
    1DPPC   C4A 1820  23.118  14.931   4.421 -0.0493 -0.1891 -0.3416
    1DPPC   C1B 1821  23.643  16.051   5.020 -0.5297 -0.1295 -0.0822
    1DPPC   C2B 1822  23.599  16.295   4.683 -0.4634 -0.2138  0.1504
    1DPPC   C3B 1823  23.553  16.712   4.716  0.0826  0.0246  0.2259
    1DPPC   C4B 1824  23.284  17.107   4.562 -0.3181  0.1990  0.3295
    1DPPC   NC3 1825  17.342  22.964   7.431 -0.0000 -0.0681 -0.1871
    1DPPC   PO4 1826  17.145  23.043   7.086  0.2792 -0.1769  0.4239
    1DPPC   GL1 1827  17.097  22.790   6.678  0.1853  0.1042 -0.0403
    1DPPC   GL2 1828  17.101  23.138   6.496  0.0169  0.0313  0.0855
    1DPPC   C1A 1829  17.139  22.658   6.337 -0.5295  0.1657 -0.0856
    1DPPC   C2A 1830  17.226  22.759   5.871  0.1417 -0.0837  0.2370
    1DPPC   C3A 1831  17.191  22.910   5.556  0.1128 -0.1484  0.0821
    1DPPC   C4A 1832  17.263  22.919   5.123  0.0507  0.0903  0.1409
    1DPPC   C1B 1833  17.080  23.216   6.097  0.3005 -0.1471  0.1438
    1DPPC   C2B 1834  17.418  23.297   5.814  0.1859 -0.1472  0.2480
    1DPPC   C3B 1835  17.535  23.317   5.378 -0.0952 -0.0776 -0.3056
    1DPPC   C4B 1836  17.672  23.393   4.961  0.1196 -0.0036  0.1351
    1DPPC   NC3 1837   7.943  13.402   6.538 -0.1269 -0.0242 -0.2247
    1DPPC   PO4 1838   7.935  13.879   6.630 -0.2913  0.0795  0.0373
    1DPPC   GL1 1839   8.109  14.012   6.294 -0.1068 -0.0955  0.1307
    1DPPC   GL2 1840   8.401  14.082   6.359  0.3484  0.0324 -0.1232
    1DPPC   C1A 1841   8.104  14.107   5.858 -0.0747  0.3007  0.0698
    1DPPC   C2A 1842   8.131  14.058   5.430 -0.0961 -0.0030 -0.2303
    1DPPC   C3A 1843   8.054  14.056   4.913 -0.2761 -0.2153 -0.1148
    1DPPC   C4A 1844   7.877  13.867   4.538 -0.0728  0.1647  0.2173
    1DPPC   C1B 1845   8.563  13.952   5.930 -0.0136 -0.0763 -0.3345
    1DPPC   C2B 1846   8.646  13.903   5.473 -0.0016 -0.0659  0.0771
    1DPPC   C3B 1847   8.497  14.048   5.127 -0.1362 -0.3088 -0.0431
    1DPPC   C4B 1848   8.494  14.053   4.686  0.1560  0.0808  0.1313
    1DPPC   NC3 1849  10.796  10.709   6.910  0.1619 -0.1208  0.0328
    1DPPC   PO4 1850  11.336  10.603   6.906 -0.1807 -0.1224 -0.2990
    1DPPC   GL1 1851  11.172  10.338   6.517 -0.0497 -0.0843 -0.0266
    1DPPC   GL2 1852  11.350  10.441   6.152  0.4989  0.0271 -0.3868
    1DPPC   C1A 1853  10.733  10.176   6.347 -0.4038 -0.1159  0.0560
    1DPPC   C2A 1854  10.612   9.992   5.895 -0.1087  0.1163  0.2903
    1DPPC   C3A 1855  10.348   9.844   5.703  0.0164 -0.3127  0.0913
    1DPPC   C4A 1856  10.046  10.020   5.353  0.1676 -0.1741 -0.0072
    1DPPC   C1B 1857  11.003  10.406   5.940 -0.1045  0.5257  0.0087
    1DPPC   C2B 1858  10.768  10.447   5.688  0.1041 -0.0229 -0.2103
    1DPPC   C3B 1859  10.400  10.362   5.634  0.1796  0.0928 -0.1565
    1DPPC   C4B 1860  10.003  10.457   5.567 -0.1191 -0.0637 -0.1289
    1DPPC   NC3 1861   2.394  13.496   5.952 -0.1298  0.0060  0.2072
    1DPPC   PO4 1862   2.246  13.978   6.149 -0.0578  0.4227 -0.0089
    1DPPC   GL1 1863   2.081  13.956   5.721 -0.2419  0.1832 -0.2813
    1DPPC   GL2 1864   2.274  14.272   5.632  0.0656 -0.0281 -0.2410
    1DPPC   C1A 1865   2.029  14.093   5.301  0.0124 -0.0086 -0.1036
    1DPPC   C2A 1866   1.920  14.057   4.864  0.2194  0.1838  0.1653
    1DPPC   C3A 1867   1.904  13.787   4.504  0.1078 -0.2518  0.0729
    1DPPC   C4A 1868   2.062  13.568   4.211  0.0545  0.2411 -0.4917
    1DPPC   C1B 1869   2.564  14.033   5.434  0.0021  0.1041  0.3318
    1DPPC   C2B 1870   3.044  14.024   5.349 -0.0314  0.1749 -0.1436
    1DPPC   C3B 1871   3.336  13.721   5.278 -0.0430 -0.1808  0.0498
    1DPPC   C4B 1872   3.375  13.521   4.885  0.1198  0.0374 -0.0281
    1DPPC   NC3 1873  15.572  19.333   7.228 -0.2140  0.1777  0.1381
    1DPPC   PO4 1874  15.936  19.275   6.920 -0.2015  0.1800  0.0028
    1DPPC   GL1 1875  16.180  19.322   6.571 -0.0106  0.1655 -0.1275
    1DPPC   GL2 1876  16.378  19.208   6.588  0.0903  0.1840 -0.2196
    1DPPC   C1A 1877  16.161  19.415   6.127  0.0046  0.1078  0.1450
    1DPPC   C2A 1878  16.326  19.478   5.791 -0.0991 -0.2147 -0.1358
    1DPPC   C3A 1879  16.459  19.570   5.431  0.0337 -0.1619 -0.0843
    1DPPC   C4A 1880  16.837  19.785   5.474 -0.1827  0.1359  0.2337
    1DPPC   C1B 1881  16.591  19.562   6.351  0.0109  0.0390  0.3270
    1DPPC   C2B 1882  16.843  19.596   5.955 -0.0090 -0.0470 -0.1000
    1DPPC   C3B 1883  16.869  19.307   5.666  0.0722 -0.3375  0.0278
    1DPPC   C4B 1884  16.721  19.214   5.176  0.0679  0.2013 -0.2517
    1DPPC   NC3 1885  10.472  19.662   6.330 -0.0364 -0.1295 -0.3576
    1DPPC   PO4 1886  10.432  20.187   6.390 -0.0453 -0.0658 -0.3151
    1DPPC   GL1 1887  10.612  20.108   5.998 -0.0878  0.0428 -0.0852
    1DPPC   GL2 1888  10.510  20.397   5.782 -0.1985  0.0784  0.0364
    1DPPC   C1A 1889  10.419  19.901   5.647  0.2907 -0.1491  0.2165
    1DPPC   C2A 1890  10.421  19.720   5.256  0.2703  0.2085  0.2254
    1DPPC   C3A 1891  10.270  19.485   4.818 -0.2381  0.1316  0.1704
    1DPPC   C4A 1892  10.178  19.346   4.450 -0.1540  0.0162 -0.0175
    1DPPC   C1B 1893  10.683  20.257   5.388  0.1977  0.0485  0.1894
    1DPPC   C2B 1894  10.904  19.943   5.106  0.0340 -0.4531  0.1644
    1DPPC   C3B 1895  10.683  19.760   4.767 -0.1234 -0.0859 -0.1969
    1DPPC   C4B 1896  10.612  19.525   4.371 -0.1594  0.2507  0.1067
    1DPPC   NC3 1897   9.385  19.877   6.442 -0.0391  0.2298 -0.0896
    1DPPC   PO4 1898   9.708  19.709   6.228 -0.2239 -0.0807  0.0228
    1DPPC   GL1 1899   9.387  19.693   5.972  0.1317 -0.0459  0.0390
    1DPPC   GL2 1900   9.261  19.863   5.830 -0.1175  0.2675 -0.0041
    1DPPC   C1A 1901   9.099  19.441   5.602  0.3083 -0.1240 -0.1522
    1DPPC   C2A 1902   9.093  19.434   5.194 -0.2142  0.0436  0.1769
    1DPPC   C3A 1903   8.916  19.672   4.829 -0.3015  0.2044  0.1284
    1DPPC   C4A 1904   8.599  19.987   4.596  0.2383 -0.1883  0.2232
    1DPPC   C1B 1905   9.425  19.809   5.454  0.0954  0.1097  0.0305
    1DPPC   C2B 1906   9.356  19.797   5.002 -0.0796  0.0208 -0.0160
    1DPPC   C3B 1907   9.308  19.720   4.532  0.1350  0.3617  0.1260
    1DPPC   C4B 1908   9.174  19.546   4.178 -0.0652 -0.1871  0.1496
    1DPPC   NC3 1909  16.843   8.391   6.679 -0.2806 -0.1306  0.2429
    1DPPC   PO4 1910  17.071   8.063   6.812  0.0066 -0.1545 -0.0019
    1DPPC   GL1 1911  17.135   8.167   6.334 -0.1314  0.1671  0.0414
    1DPPC   GL2 1912  17.079   8.602   6.233  0.4409 -0.0479  0.0607
    1DPPC   C1A 1913  17.231   8.312   5.818 -0.2063 -0.3433  0.0457
    1DPPC   C2A 1914  17.337   8.338   5.436  0.2831 -0.0927 -0.0979
    1DPPC   C3A 1915  17.250   8.184   4.954  0.0085  0.2064 -0.1166
    1DPPC   C4A 1916  17.067   7.810   4.803 -0.1298  0.0724 -0.0207
    1DPPC   C1B 1917  16.970   8.730   5.837 -0.1182  0.0673 -0.1467
    1DPPC   C2B 1918  16.979   8.770   5.422  0.0851  0.3021  0.0611
    1DPPC   C3B 1919  17.026   8.613   5.055 -0.0222  0.0777 -0.3881
    1DPPC   C4B 1920  16.664   8.655   4.780 -0.2550 -0.2805 -0.4149
    1DPPC   NC3 1921   4.996   9.005   6.665 -0.0016  0.0360 -0.1196
    1DPPC   PO4 1922   5.164   8.657   6.780  0.2754 -0.2698  0.1807
    1DPPC   GL1 1923   5.148   8.556   6.399 -0.2745  0.0139  0.3397
    1DPPC   GL2 1924   5.435   8.668   6.280  0.2092 -0.1061 -0.0252
    1DPPC   C1A 1925   5.081   8.595   5.944 -0.1122  0.0230  0.0529
    1DPPC   C2A 1926   5.201   8.558   5.454 -0.1237 -0.0165 -0.2840
    1DPPC   C3A 1927   5.286   8.355   5.035  0.0365  0.2481 -0.1015
    1DPPC   C4A 1928   5.580   8.044   4.851  0.1261 -0.0623 -0.2973
    1DPPC   C1B 1929   5.597   8.329   6.038 -0.0660 -0.1060 -0.0969
    1DPPC   C2B 1930   5.384   8.130   5.674  0.2478  0.0508  0.1439
    1DPPC   C3B 1931   5.296   7.868   5.403  0.0925 -0.1653  0.3179
    1DPPC   C4B 1932   5.128   7.924   5.041  0.0617  0.1642  0.1007
    1DPPC   NC3 1933  18.662  16.018   6.476  0.1214  0.1008  0.1729
    1DPPC   PO4 1934  18.414  15.692   6.390 -0.0584  0.0174 -0.0077
    1DPPC   GL1 1935  18.312  15.528   6.017  0.0901 -0.0292  0.0112
    1DPPC   GL2 1936  18.133  15.188   6.042  0.5010 -0.4332 -0.0052
    1DPPC   C1A 1937  18.196  15.328   5.605  0.1489  0.2086 -0.0566
    1DPPC   C2A 1938  18.247  15.259   5.138 -0.0357 -0.1460 -0.1192
    1DPPC   C3A 1939  18.030  15.101   4.699  0.1622 -0.3123  0.1013
    1DPPC   C4A 1940  17.783  15.105   4.377 -0.0674  0.0529  0.2860
    1DPPC   C1B 1941  17.765  15.443   5.817  0.0999 -0.0825  0.1799
    1DPPC   C2B 1942  17.805  15.533   5.382 -0.1325  0.1879  0.1631
    1DPPC   C3B 1943  17.803  15.458   4.917 -0.1959 -0.1438 -0.1376
    1DPPC   C4B 1944  17.489  15.513   4.625  0.1948 -0.2497 -0.0180
    1DPPC   NC3 1945  26.599  23.143   6.157  0.3236  0.0973 -0.0826
    1DPPC   PO4 1946  27.046  22.915   6.073 -0.0374 -0.0351 -0.1029
    1DPPC   GL1 1947  26.972  22.901   5.703  0.1272 -0.1345 -0.3175
    1DPPC   GL2 1948  26.685  22.999   5.724 -0.3057  0.3658  0.0562
    1DPPC   C1A 1949  26.856  22.738   5.306 -0.0041 -0.1627 -0.1792
    1DPPC   C2A 1950  26.623  22.883   5.021 -0.1844 -0.2131 -0.1658
    1DPPC   C3A 1951  26.366  22.919   4.623 -0.0098  0.4465  0.0763
    1DPPC   C4A 1952  26.050  22.857   4.525 -0.1036 -0.0194 -0.0426
    1DPPC   C1B 1953  26.671  23.252   5.420 -0.1325  0.0863 -0.0693
    1DPPC   C2B 1954  26.704  23.464   5.031 -0.1246 -0.0663 -0.1278
    1DPPC   C3B 1955  26.608  23.530   4.655 -0.2901 -0.1806 -0.4100
    1DPPC   C4B 1956  26.512  23.438   4.243  0.0489 -0.1669  0.1601
    1DPPC   NC3 1957  21.210  12.208   6.241  0.1747 -0.0357 -0.2314
    1DPPC   PO4 1958  20.890  12.059   5.973 -0.0871 -0.1127  0.0020
    1DPPC   GL1 1959  20.559  11.915   5.723  0.2024 -0.0199  0.0562
    1DPPC   GL2 1960  20.343  11.693   5.660  0.2823  0.0329 -0.2276
    1DPPC   C1A 1961  20.551  11.984   5.246 -0.0753  0.3311 -0.2366
    1DPPC   C2A 1962  20.712  12.147   4.852 -0.0331 -0.0582 -0.2277
    1DPPC   C3A 1963  20.802  11.964   4.478  0.2899 -0.2303  0.1746
    1DPPC   C4A 1964  20.986  11.683   4.138  0.0799  0.0871  0.0649
    1DPPC   C1B 1965  20.498  11.504   5.353  0.0389  0.0112 -0.0644
    1DPPC   C2B 1966  20.356  11.424   5.024  0.4439  0.3163 -0.1566
    1DPPC   C3B 1967  20.447  11.159   4.744  0.0520 -0.1274  0.0563
    1DPPC   C4B 1968  20.741  10.833   4.617  0.1158  0.2452  0.1365
    1DPPC   NC3 1969  12.863  20.748   6.734 -0.0033 -0.1272 -0.0294
    1DPPC   PO4 1970  13.236  20.584   6.586 -0.0838 -0.2235 -0.0037
    1DPPC   GL1 1971  13.438  20.415   6.275  0.4283 -0.0999 -0.2067
    1DPPC   GL2 1972  13.365  20.579   6.037  0.0299  0.1366  0.0760
    1DPPC   C1A 1973  13.277  20.098   6.028  0.0385 -0.0722  0.0239
    1DPPC   C2A 1974  13.058  19.894   5.626  0.2020 -0.0638 -0.2172
    1DPPC   C3A 1975  13.087  19.833   5.197  0.1438 -0.0561 -0.1009
    1DPPC   C4A 1976  12.989  19.774   4.747 -0.1387  0.3129 -0.0010
    1DPPC   C1B 1977  13.301  20.453   5.637 -0.0699 -0.2246 -0.1877
    1DPPC   C2B 1978  13.429  20.173   5.320 -0.2341  0.0810  0.1894
    1DPPC   C3B 1979  13.437  20.135   4.912  0.0849  0.1643  0.0814
    1DPPC   C4B 1980  13.408  19.887   4.494  0.0129  0.0092 -0.0247
    1DPPC   NC3 1981  14.944  20.091   7.558 -0.1280  0.3563 -0.1591
    1DPPC   PO4 1982  15.038  19.983   7.087 -0.1085 -0.3097 -0.0741
    1DPPC   GL1 1983  14.916  19.908   6.668  0.2535 -0.0564  0.0908
    1DPPC   GL2 1984  14.992  19.531   6.536 -0.0359 -0.0477  0.1913
    1DPPC   C1A 1985  15.115  20.049   6.235 -0.3754  0.0016  0.1379
    1DPPC   C2A 1986  15.329  19.943   5.851 -0.2438  0.0256 -0.2288
    1DPPC   C3A 1987  15.367  19.975   5.475 -0.0282  0.1019  0.1790
    1DPPC   C4A 1988  15.422  20.055   5.065  0.3768 -0.3739  0.0842
    1DPPC   C1B 1989  15.255  19.460   6.213  0.1729  0.1502 -0.1759
    1DPPC   C2B 1990  15.356  19.421   5.705 -0.1272  0.1771 -0.3137
    1DPPC   C3B 1991  15.311  19.496   5.331  0.2786  0.0330  0.0828
    1DPPC   C4B 1992  15.271  19.554   4.836  0.3332  0.2341  0.1268
    1DPPC   NC3 1993  19.918   9.385   6.172 -0.0368  0.0805  0.1118
    1DPPC   PO4 1994  19.664   9.788   6.098  0.1818  0.1206  0.1854
    1DPPC   GL1 1995  19.686   9.543   5.721  0.0604  0.2334 -0.1376
    1DPPC   GL2 1996  19.572   9.249   5.815  0.1451  0.0592 -0.0611
    1DPPC   C1A 1997  19.694   9.390   5.312  0.0041 -0.1957 -0.0041
    1DPPC   C2A 1998  19.817   9.383   4.937  0.5146 -0.1617 -0.0856
    1DPPC   C3A 1999  19.965   9.187   4.732 -0.0630  0.0268  0.3353
    1DPPC   C4A 2000  20.170   9.006   4.382 -0.3319 -0.0387  0.3820
    1DPPC   C1B 2001  19.216   9.145   5.463  0.0650  0.0782 -0.2779
    1DPPC   C2B 2002  19.109   9.089   5.070  0.0754  0.2182 -0.2548
    1DPPC   C3B 2003  18.845   9.076   4.621  0.1557 -0.3292 -0.0993
    1DPPC   C4B 2004  18.679   9.226   4.330 -0.1897  0.0073  0.0865
    1DPPC   NC3 2005   7.564  14.047   6.854  0.0803  0.1868  0.2480
    1DPPC   PO4 2006   7.387  13.636   6.815 -0.1573 -0.3451  0.1337
    1DPPC   GL1 2007   7.473  13.769   6.397  0.2016 -0.0109 -0.3730
    1DPPC   GL2 2008   7.751  13.701   6.146 -0.0404 -0.3590 -0.0175
    1DPPC   C1A 2009   7.277  13.669   6.014 -0.1299 -0.0618 -0.1658
    1DPPC   C2A 2010   7.292  13.556   5.582  0.1204 -0.1257 -0.0005
    1DPPC   C3A 2011   7.390  13.476   5.201 -0.3125  0.2589 -0.1064
    1DPPC   C4A 2012   7.378  13.107   5.013  0.0273 -0.0055 -0.0625
    1DPPC   C1B 2013   7.711  13.693   5.767 -0.1238  0.1533 -0.0671
    1DPPC   C2B 2014   7.806  13.702   5.300  0.2023  0.1635 -0.1246
    1DPPC   C3B 2015   7.866  13.393   4.983  0.0583  0.3983 -0.0767
    1DPPC   C4B 2016   7.775  13.089   4.634  0.1411  0.1858 -0.1635
    1DPPC   NC3 2017  18.979  22.938   7.110  0.3019 -0.2294  0.0304
    1DPPC   PO4 2018  19.376  22.777   7.239 -0.1206 -0.0285 -0.0628
    1DPPC   GL1 2019  19.409  22.687   6.828  0.2133  0.1223  0.0708
    1DPPC   GL2 2020  19.608  22.410   6.644  0.0485  0.0028 -0.0373
    1DPPC   C1A 2021  19.293  22.784   6.446  0.0734 -0.3080 -0.1742
    1DPPC   C2A 2022  19.346  22.978   6.030  0.3810 -0.0759 -0.0217
    1DPPC   C3A 2023  19.454  23.318   5.811 -0.1740  0.1187 -0.0240
    1DPPC   C4A 2024  19.345  23.682   5.967  0.2185 -0.0931  0.0464
    1DPPC   C1B 2025  19.595  22.363   6.202 -0.0257 -0.0844 -0.0890
    1DPPC   C2B 2026  19.435  22.029   5.946  0.1011  0.2071 -0.0189
    1DPPC   C3B 2027  19.423  21.886   5.592  0.0957  0.0343  0.0728
    1DPPC   C4B 2028  19.497  21.889   5.190  0.3034 -0.1490 -0.1109
    1DPPC   NC3 2029   9.835  17.340   6.211 -0.0841 -0.0623 -0.0934
    1DPPC   PO4 2030  10.299  17.417   6.443  0.0135  0.0639 -0.1299
    1DPPC   GL1 2031  10.461  17.474   6.072  0.2665 -0.0367 -0.0711
    1DPPC   GL2 2032  10.265  17.354   5.868 -0.0083  0.1942 -0.1481
    1DPPC   C1A 2033  10.699  17.576   5.673  0.1198  0.1527  0.1080
    1DPPC   C2A 2034  10.655  17.556   5.296 -0.1048 -0.0536  0.3860
    1DPPC   C3A 2035  10.619  17.646   4.904  0.1383  0.3707  0.2984
    1DPPC   C4A 2036  10.314  17.507   4.597  0.0267 -0.0872  0.0127
    1DPPC   C1B 2037  10.023  17.505   5.482 -0.1061 -0.2051 -0.0141
    1DPPC   C2B 2038  10.154  17.358   5.076  0.0945 -0.2208  0.1521
    1DPPC   C3B 2039  10.152  17.116   4.810 -0.1173  0.0838 -0.1131
    1DPPC   C4B 2040  10.062  16.755   4.663  0.0972  0.0473 -0.0160
    1DPPC   NC3 2041  17.206  12.430   7.500 -0.1227  0.1871 -0.1422
    1DPPC   PO4 2042  17.350  12.632   7.028  0.2289 -0.1335 -0.2132
    1DPPC   GL1 2043  17.244  12.606   6.537 -0.2816  0.0637 -0.1137
    1DPPC   GL2 2044  17.286  12.218   6.325 -0.1354 -0.2911  0.2035
    1DPPC   C1A 2045  17.574  12.628   6.112  0.0967 -0.1008 -0.1765
    1DPPC   C2A 2046  17.717  12.350   5.791 -0.1394 -0.2799  0.1574
    1DPPC   C3A 2047  17.657  12.314   5.334 -0.0149  0.0124 -0.0149
    1DPPC   C4A 2048  17.520  12.391   4.939  0.0301  0.2705 -0.0239
    1DPPC   C1B 2049  17.251  12.323   5.909 -0.1534 -0.0912 -0.0192
    1DPPC   C2B 2050  17.163  12.275   5.622  0.0255 -0.1559  0.1850
    1DPPC   C3B 2051  17.114  12.241   5.216  0.0670 -0.1810 -0.1064
    1DPPC   C4B 2052  17.072  12.192   4.810 -0.0262 -0.1094  0.2408
    1DPPC   NC3 2053  19.398  16.604   6.757 -0.0840 -0.0050 -0.0546
    1DPPC   PO4 2054  19.176  16.875   6.949 -0.0736 -0.0849 -0.4409
    1DPPC   GL1 2055  19.375  16.990   6.479  0.0979  0.2566 -0.1474
    1DPPC   GL2 2056  19.125  17.245   6.388  0.2775 -0.1375  0.3611
    1DPPC   C1A 2057  19.497  17.316   6.077  0.0490 -0.2035  0.0143
    1DPPC   C2A 2058  19.621  17.322   5.695 -0.2849  0.0997  0.0209
    1DPPC   C3A 2059  19.563  17.361   5.205  0.1540 -0.2410 -0.0417
    1DPPC   C4A 2060  19.355  17.448   4.784  0.1239 -0.0516 -0.1307
    1DPPC   C1B 2061  18.712  17.328   6.128 -0.0284  0.0801 -0.1456
    1DPPC   C2B 2062  18.710  17.310   5.723  0.0181  0.1454  0.1199
    1DPPC   C3B 2063  18.587  17.177   5.305  0.0848  0.0365 -0.2752
    1DPPC   C4B 2064  18.416  17.174   4.842 -0.2466 -0.1606  0.1739
    1DPPC   NC3 2065  16.441   9.115   6.335 -0.4322 -0.1319 -0.1185
    1DPPC   PO4 2066  16.594   8.721   6.437  0.2427 -0.0542 -0.1770
    1DPPC   GL1 2067  16.490   8.711   6.010 -0.0497  0.0161 -0.0136
    1DPPC   GL2 2068  16.241   8.817   5.909 -0.0022  0.0986  0.1202
    1DPPC   C1A 2069  16.599   8.598   5.609  0.0082  0.1696 -0.0231
    1DPPC   C2A 2070  16.486   8.579   5.283 -0.0322  0.2642  0.0677
    1DPPC   C3A 2071  16.316   8.380   4.879  0.0325 -0.2041 -0.0372
    1DPPC   C4A 2072  16.403   8.199   4.510 -0.0043 -0.1824 -0.1371
    1DPPC   C1B 2073  16.067   8.709   5.543  0.1236  0.1164 -0.0535
    1DPPC   C2B 2074  16.021   8.720   5.147  0.1136 -0.1091 -0.3429
    1DPPC   C3B 2075  16.165   8.829   4.725  0.2335  0.0404 -0.0975
    1DPPC   C4B 2076  16.068   8.603   4.379  0.1184  0.2041  0.0980
    1DPPC   NC3 2077  20.721  11.592   6.067 -0.0148 -0.0427  0.2950
    1DPPC   PO4 2078  20.499  11.393   6.203  0.2320  0.0976 -0.0559
    1DPPC   GL1 2079  20.501  11.101   5.900 -0.1040 -0.2165 -0.1101
    1DPPC   GL2 2080  20.227  10.857   5.767  0.0130  0.1609  0.3250
    1DPPC   C1A 2081  20.634  11.019   5.490  0.1667  0.2946  0.2312
    1DPPC   C2A 2082  20.637  11.023   5.199  0.0159 -0.0007  0.2394
    1DPPC   C3A 2083  20.954  11.101   4.967  0.1093 -0.2358  0.0038
    1DPPC   C4A 2084  21.210  11.093   4.683 -0.0572 -0.2786 -0.1955
    1DPPC   C1B 2085  20.195  10.799   5.307 -0.0362 -0.1958 -0.1678
    1DPPC   C2B 2086  20.237  10.727   4.945  0.3407 -0.1330 -0.2294
    1DPPC   C3B 2087  20.300  10.641   4.566  0.2120  0.3740  0.0716
    1DPPC   C4B 2088  20.071  10.656   4.217  0.2259 -0.0958  0.3212
    1DPPC   NC3 2089  16.383   8.596   6.976 -0.0113  0.2987  0.2090
    1DPPC   PO4 2090  16.312   8.353   6.663 -0.0328 -0.1562 -0.3602
    1DPPC   GL1 2091  16.609   8.135   6.364 -0.0848  0.4109  0.0935
    1DPPC   GL2 2092  16.525   7.902   6.193 -0.0212  0.0178  0.0112
    1DPPC   C1A 2093  16.777   8.299   5.999  0.1393  0.2326 -0.1243
    1DPPC   C2A 2094  16.847   8.234   5.524  0.0450 -0.0704 -0.0610
    1DPPC   C3A 2095  16.755   8.173   5.078  0.0359  0.1172  0.1943
    1DPPC   C4A 2096  16.849   8.225   4.691  0.2992  0.1324  0.0586
    1DPPC   C1B 2097  16.526   7.674   5.755  0.0445  0.1070  0.3276
    1DPPC   C2B 2098  16.667   7.660   5.318 -0.1410  0.0137 -0.1573
    1DPPC   C3B 2099  16.957   7.409   5.075 -0.2041  0.2218  0.0409
    1DPPC   C4B 2100  17.226   7.310   4.748  0.1298  0.0768 -0.2962
    1DPPC   NC3 2101  21.128   9.505   6.424  0.1995 -0.0437 -0.1342
    1DPPC   PO4 2102  20.890   9.503   6.087  0.1408  0.0636  0.0173
    1DPPC   GL1 2103  20.604   9.637   5.800 -0.0986  0.0150  0.1059
    1DPPC   GL2 2104  20.258   9.552   5.824  0.0079  0.1214  0.0309
    1DPPC   C1A 2105  20.407   9.536   5.377 -0.1303  0.1019 -0.1205
    1DPPC   C2A 2106  20.363   9.436   4.937 -0.0232 -0.1168 -0.1930
    1DPPC   C3A 2107  20.464   9.361   4.626 -0.0510  0.1707  0.2292
    1DPPC   C4A 2108  20.560   9.387   4.236  0.1392 -0.2185  0.0350
    1DPPC   C1B 2109  20.045   9.836   5.549  0.3075 -0.0859  0.1695
    1DPPC   C2B 2110  20.091   9.811   5.082  0.0553 -0.3738  0.0392
    1DPPC   C3B 2111  20.097   9.703   4.608  0.0224  0.1005  0.0195
    1DPPC   C4B 2112  19.991   9.448   4.278 -0.0101  0.3142  0.0355
    1DPPC   NC3 2113  23.166  27.147   7.179 -0.2918 -0.3105  0.1814
    1DPPC   PO4 2114  23.394  26.883   6.849  0.1553  0.0525  0.1024
    1DPPC   GL1 2115  23.555  27.044   6.452  0.0243 -0.0182  0.0673
    1DPPC   GL2 2116  23.527  27.403   6.329 -0.1318  0.0869 -0.1706
    1DPPC   C1A 2117  23.363  27.041   6.000  0.0428 -0.1373 -0.1978
    1DPPC   C2A 2118  23.240  26.838   5.660  0.1630  0.2357  0.0217
    1DPPC   C3A 2119  22.935  26.522   5.475 -0.0940  0.1261 -0.0043
    1DPPC   C4A 2120  22.546  26.267   5.458 -0.0816  0.0035  0.2649
    1DPPC   C1B 2121  23.265  27.575   5.975  0.2522  0.0203  0.2125
    1DPPC   C2B 2122  23.311  27.353   5.553 -0.1680 -0.0255  0.1064
    1DPPC   C3B 2123  23.279  27.189   5.117 -0.2047  0.2949 -0.2989
    1DPPC   C4B 2124  23.050  27.103   4.753  0.0473 -0.1256 -0.0956
    1DPPC   NC3 2125  18.269  15.776   7.123 -0.0042 -0.0378 -0.1712
    1DPPC   PO4 2126  18.177  15.970   6.701 -0.2778 -0.0603  0.0564
    1DPPC   GL1 2127  18.063  16.078   6.222 -0.0642  0.3052 -0.1797
    1DPPC   GL2 2128  17.895  15.922   6.032  0.1362  0.0886 -0.1027
    1DPPC   C1A 2129  18.233  16.404   6.055  0.2144 -0.1887 -0.1468
    1DPPC   C2A 2130  18.248  16.346   5.644 -0.3201 -0.0674  0.3652
    1DPPC   C3A 2131  18.351  16.208   5.226  0.2703 -0.1436  0.1768
    1DPPC   C4A 2132  18.522  16.269   4.784  0.1043  0.0663  0.1909
    1DPPC   C1B 2133  17.895  15.960   5.624  0.1096  0.2892 -0.2868
    1DPPC   C2B 2134  17.839  16.000   5.187  0.2527  0.1143 -0.1315
    1DPPC   C3B 2135  17.758  15.963   4.771 -0.1397  0.2279 -0.3621
    1DPPC   C4B 2136  17.583  16.001   4.366 -0.2344 -0.0935  0.2030
    1DPPC   NC3 2137  15.078  22.323   6.743  0.0511 -0.0439  0.2568
    1DPPC   PO4 2138  15.061  22.247   6.260  0.1033 -0.0903 -0.2862
    1DPPC   GL1 2139  15.296  22.229   5.881 -0.1324 -0.1993 -0.3690
    1DPPC   GL2 2140  15.377  21.950   5.721  0.1485  0.1032 -0.2253
    1DPPC   C1A 2141  15.251  22.416   5.520 -0.0412 -0.1109  0.0030
    1DPPC   C2A 2142  15.316  22.389   5.041 -0.0134  0.4368  0.0920
    1DPPC   C3A 2143  15.364  22.611   4.657  0.0838 -0.0210  0.2332
    1DPPC   C4A 2144  15.089  22.945   4.389  0.0647  0.0600 -0.1828
    1DPPC   C1B 2145  15.485  21.920   5.283  0.2302  0.2420 -0.0746
    1DPPC   C2B 2146  15.742  21.898   4.870  0.2164  0.4325 -0.1431
    1DPPC   C3B 2147  15.988  21.795   4.493 -0.0551  0.1642  0.3443
    1DPPC   C4B 2148  16.464  21.855   4.600 -0.1269  0.3147 -0.1887
    1DPPC   NC3 2149  13.247  13.805   6.885  0.1167  0.0272 -0.1593
    1DPPC   PO4 2150  13.260  13.408   7.133  0.0785 -0.1202 -0.1527
    1DPPC   GL1 2151  13.275  13.333   6.673  0.0086 -0.2925  0.1430
    1DPPC   GL2 2152  13.013  13.490   6.531  0.0352  0.0662  0.0685
    1DPPC   C1A 2153  13.172  13.193   6.232  0.2218  0.2447 -0.2430
    1DPPC   C2A 2154  13.114  13.172   5.784 -0.2119  0.2099 -0.1611
    1DPPC   C3A 2155  13.147  13.143   5.294 -0.2130 -0.1310 -0.3414
    1DPPC   C4A 2156  12.942  13.175   4.908 -0.1379 -0.0815 -0.1855
    1DPPC   C1B 2157  12.781  13.444   6.112 -0.2777  0.0816 -0.7146
    1DPPC   C2B 2158  12.705  13.414   5.731 -0.0895 -0.0982 -0.0092
    1DPPC   C3B 2159  12.694  13.440   5.256  0.1430 -0.0684 -0.0204
    1DPPC   C4B 2160  12.339  13.319   4.940 -0.2781 -0.0745  0.0823
    1DPPC   NC3 2161  10.350  14.091   7.192 -0.2331  0.0682 -0.0310
    1DPPC   PO4 2162  10.385  13.560   7.139 -0.3701 -0.1670  0.3400
    1DPPC   GL1 2163  10.347  13.377   6.778 -0.0890  0.1515  0.3398
    1DPPC   GL2 2164  10.011  13.259   6.868 -0.0811  0.0155 -0.2655
    1DPPC   C1A 2165  10.516  13.135   6.407  0.2307 -0.1894  0.2779
    1DPPC   C2A 2166  10.518  13.111   6.032  0.2509 -0.0487  0.0180
    1DPPC   C3A 2167  10.449  13.234   5.627  0.2897 -0.0086  0.0897
    1DPPC   C4A 2168  10.650  13.327   5.232 -0.2910 -0.1236  0.0275
    1DPPC   C1B 2169  10.010  13.053   6.428  0.0061  0.1648 -0.0279
    1DPPC   C2B 2170  10.055  12.972   5.997 -0.2368  0.1114  0.0744
    1DPPC   C3B 2171  10.063  12.843   5.607 -0.0076  0.0305  0.1822
    1DPPC   C4B 2172   9.969  12.803   5.170  0.3459  0.0133  0.0886
    1DPPC   NC3 2173   9.046  18.551   6.857 -0.1716  0.1278 -0.1906
    1DPPC   PO4 2174   9.017  18.866   6.456 -0.1198  0.0502  0.1535
    1DPPC   GL1 2175   9.294  18.917   6.141 -0.0855 -0.0439 -0.1165
    1DPPC   GL2 2176   9.553  18.686   6.001  0.3957 -0.1068 -0.0433
    1DPPC   C1A 2177   9.136  18.925   5.739  0.0394 -0.2240  0.1504
    1DPPC   C2A 2178   9.175  18.903   5.293  0.0192  0.1811  0.2611
    1DPPC   C3A 2179   9.225  19.002   4.847 -0.0177  0.0732 -0.3096
    1DPPC   C4A 2180   9.274  18.958   4.385  0.0234  0.0751  0.0037
    1DPPC   C1B 2181   9.625  18.652   5.590 -0.2116 -0.1483 -0.1230
    1DPPC   C2B 2182   9.557  18.647   5.158  0.0878  0.1080  0.1519
    1DPPC   C3B 2183   9.557  18.564   4.761 -0.4325 -0.0207  0.0472
    1DPPC   C4B 2184   9.499  18.522   4.323 -0.1935  0.3116 -0.1332
    1DPPC   NC3 2185  13.532  12.927   7.575 -0.1033  0.0713 -0.0302
    1DPPC   PO4 2186  13.589  12.957   7.183  0.0750 -0.1355  0.1181
    1DPPC   GL1 2187  13.276  12.867   6.836 -0.1642  0.1979 -0.0913
    1DPPC   GL2 2188  13.002  12.649   6.878 -0.1959  0.0149 -0.1301
    1DPPC   C1A 2189  13.302  12.716   6.402  0.0306  0.1636 -0.2356
    1DPPC   C2A 2190  13.241  12.723   5.951 -0.1821 -0.3336  0.1408
    1DPPC   C3A 2191  13.122  12.726   5.573 -0.2666  0.1968  0.0968
    1DPPC   C4A 2192  12.944  12.661   5.209 -0.0547 -0.1609 -0.3506
    1DPPC   C1B 2193  12.863  12.471   6.561 -0.1032 -0.2748 -0.2121
    1DPPC   C2B 2194  12.857  12.433   6.162  0.0855  0.0642 -0.0331
    1DPPC   C3B 2195  12.922  12.285   5.863 -0.0142 -0.2270 -0.0139
    1DPPC   C4B 2196  12.719  12.437   5.596 -0.4112 -0.0117  0.2111
    1DPPC   NC3 2197  17.770   9.078   6.868 -0.2694 -0.4418 -0.0565
    1DPPC   PO4 2198  17.985   8.934   6.474  0.0368  0.0751 -0.0463
    1DPPC   GL1 2199  18.160   8.905   6.088 -0.3216  0.0233 -0.0010
    1DPPC   GL2 2200  17.884   9.031   5.915 -0.0700 -0.1494  0.0822
    1DPPC   C1A 2201  18.334   8.686   5.727 -0.1948  0.0526 -0.1295
    1DPPC   C2A 2202  18.273   8.577   5.316  0.0460 -0.3581  0.1386
    1DPPC   C3A 2203  18.327   8.432   4.955  0.4386 -0.2039  0.0483
    1DPPC   C4A 2204  18.278   8.185   4.559 -0.2024 -0.1463  0.3007
    1DPPC   C1B 2205  17.908   8.919   5.498  0.1260 -0.2374  0.4028
    1DPPC   C2B 2206  17.934   8.879   5.025 -0.0730 -0.1581 -0.1115
    1DPPC   C3B 2207  18.023   8.768   4.660  0.1166 -0.1936  0.0040
    1DPPC   C4B 2208  18.018   8.576   4.350 -0.0179 -0.0318  0.0906
    1DPPC   NC3 2209   6.188   8.959   6.939 -0.4109  0.3850 -0.3382
    1DPPC   PO4 2210   6.028   9.425   6.971 -0.1072 -0.4184  0.2766
    1DPPC   GL1 2211   5.910   9.282   6.571 -0.2164 -0.0588  0.0847
    1DPPC   GL2 2212   6.267   9.200   6.444 -0.0616 -0.1029 -0.0433
    1DPPC   C1A 2213   5.849   9.025   6.118 -0.1857  0.0204  0.1718
    1DPPC   C2A 2214   6.042   8.874   5.695  0.2446 -0.0903 -0.4219
    1DPPC   C3A 2215   6.041   8.876   5.228 -0.0189  0.1703  0.1109
    1DPPC   C4A 2216   5.924   9.013   4.872  0.1108  0.2909 -0.0441
    1DPPC   C1B 2217   6.233   9.299   5.988 -0.1102  0.3905  0.1266
    1DPPC   C2B 2218   6.203   9.445   5.589  0.0722  0.2664  0.0361
    1DPPC   C3B 2219   6.244   9.341   5.068  0.1691  0.0895  0.0165
    1DPPC   C4B 2220   6.675   9.233   4.903 -0.0151 -0.2251  0.1345
    1DPPC   NC3 2221  10.918  12.770   7.251  0.0327  0.2291  0.1892
    1DPPC   PO4 2222  11.193  13.086   7.125 -0.0012 -0.1014 -0.1199
    1DPPC   GL1 2223  11.324  12.999   6.767  0.0547 -0.1274  0.3622
    1DPPC   GL2 2224  11.037  13.044   6.535  0.3567  0.1105 -0.0609
    1DPPC   C1A 2225  11.450  12.633   6.532 -0.0304 -0.0102  0.0650
    1DPPC   C2A 2226  11.328  12.327   6.297  0.2505 -0.0331 -0.0538
    1DPPC   C3A 2227  11.424  12.159   5.855  0.0967  0.0068  0.1092
    1DPPC   C4A 2228  11.764  11.843   5.632 -0.0566  0.0447 -0.1062
    1DPPC   C1B 2229  11.039  12.741   6.159 -0.2314  0.0916 -0.1146
    1DPPC   C2B 2230  10.908  12.398   5.930 -0.0533  0.4817 -0.0295
    1DPPC   C3B 2231  10.980  12.580   5.561  0.2070  0.3644 -0.2215
    1DPPC   C4B 2232  11.233  12.677   5.201 -0.0472 -0.0203  0.1532
    1DPPC   NC3 2233  11.651  12.957   7.308 -0.1412  0.0132 -0.4874
    1DPPC   PO4 2234  12.032  12.848   7.204  0.0490 -0.0731 -0.0101
    1DPPC   GL1 2235  11.934  12.838   6.825 -0.3147 -0.2116  0.0278
    1DPPC   GL2 2236  12.048  12.912   6.628  0.2831 -0.1620 -0.0898
    1DPPC   C1A 2237  11.871  12.399   6.606 -0.2120  0.2417  0.1328
    1DPPC   C2A 2238  11.844  12.467   6.121  0.1228  0.1245 -0.2087
    1DPPC   C3A 2239  11.841  12.363   5.676 -0.1384 -0.1472 -0.0532
    1DPPC   C4A 2240  12.160  12.256   5.501  0.0255 -0.4445 -0.3932
    1DPPC   C1B 2241  12.084  12.888   6.181 -0.4913 -0.0663 -0.0467
    1DPPC   C2B 2242  12.041  12.792   5.762  0.0461  0.1986 -0.2386
    1DPPC   C3B 2243  12.113  12.722   5.251  0.3507  0.0308  0.1419
    1DPPC   C4B 2244  12.089  12.861   4.837 -0.1987  0.0233 -0.1824
    1DPPC   NC3 2245  20.859   8.144   6.222  0.0931  0.0644 -0.0161
    1DPPC   PO4 2246  21.072   8.506   6.206 -0.1093 -0.0904  0.3770
    1DPPC   GL1 2247  21.261   8.652   5.848 -0.1243 -0.1998  0.1770
    1DPPC   GL2 2248  21.548   8.446   5.846 -0.1317 -0.2045  0.2768
    1DPPC   C1A 2249  21.177   8.867   5.420  0.1395 -0.1972  0.1396
    1DPPC   C2A 2250  21.173   8.698   5.110 -0.0205 -0.1897  0.1812
    1DPPC   C3A 2251  21.261   8.670   4.654  0.1657 -0.3224 -0.0227
    1DPPC   C4A 2252  21.161   8.875   4.217 -0.0677  0.1218 -0.0440
    1DPPC   C1B 2253  21.641   8.413   5.383  0.0753  0.0187 -0.0685
    1DPPC   C2B 2254  21.713   8.559   5.033 -0.1248  0.0060 -0.0487
    1DPPC   C3B 2255  21.734   8.491   4.590  0.0741  0.1079 -0.1594
    1DPPC   C4B 2256  21.464   8.468   4.231  0.0355  0.0870  0.0236
    1DPPC   NC3 2257  15.082   9.276   6.649 -0.0370  0.3623  0.0896
    1DPPC   PO4 2258  14.755   9.445   6.840  0.0107  0.1647  0.0697
    1DPPC   GL1 2259  14.633   9.572   6.452  0.0825 -0.4468 -0.1401
    1DPPC   GL2 2260  14.714   9.165   6.292 -0.1404 -0.0623 -0.1672
    1DPPC   C1A 2261  14.326   9.583   6.216  0.0908 -0.0045 -0.1721
    1DPPC   C2A 2262  14.094   9.537   5.821 -0.0268  0.0858 -0.0031
    1DPPC   C3A 2263  14.018   9.658   5.450  0.3061  0.2434 -0.1692
    1DPPC   C4A 2264  13.834   9.745   5.074  0.1833  0.1350  0.2293
    1DPPC   C1B 2265  14.583   9.220   5.909 -0.0675 -0.2019  0.0393
    1DPPC   C2B 2266  14.505   9.290   5.500  0.1017  0.0611  0.0365
    1DPPC   C3B 2267  14.339   9.538   5.089 -0.2958 -0.0153  0.1293
    1DPPC   C4B 2268  14.105   9.397   4.780 -0.1109  0.2981 -0.0345
    1DPPC   NC3 2269  20.115  16.960   6.850  0.0121 -0.3010 -0.0630
    1DPPC   PO4 2270  19.672  17.075   6.838  0.0023 -0.1511  0.1311
    1DPPC   GL1 2271  19.872  17.206   6.395 -0.1673  0.0756  0.0039
    1DPPC   GL2 2272  20.268  17.207   6.420 -0.0164  0.0277 -0.0636
    1DPPC   C1A 2273  20.002  17.382   6.019 -0.0295  0.0981  0.1777
    1DPPC   C2A 2274  20.093  17.429   5.610  0.3714 -0.0202  0.2063
    1DPPC   C3A 2275  20.079  17.414   5.205  0.0767  0.1115 -0.1352
    1DPPC   C4A 2276  19.894  17.331   4.826  0.1479  0.1333 -0.0434
    1DPPC   C1B 2277  20.239  16.925   6.077  0.0681  0.3877 -0.2441
    1DPPC   C2B 2278  20.418  16.911   5.634 -0.0960 -0.1760  0.1542
    1DPPC   C3B 2279  20.397  16.989   5.171 -0.3432  0.2190 -0.3051
    1DPPC   C4B 2280  20.451  16.982   4.707 -0.1782 -0.0374 -0.0408
    1DPPC   NC3 2281  11.040  13.836   7.596 -0.0899  0.0702 -0.0735
    1DPPC   PO4 2282  10.861  13.913   7.195 -0.3390  0.0865 -0.0386
    1DPPC   GL1 2283  10.547  13.879   6.796  0.0055  0.0045  0.0197
    1DPPC   GL2 2284  10.336  14.146   6.559 -0.0533 -0.0703  0.1636
    1DPPC   C1A 2285  10.632  13.730   6.403  0.1540  0.4613  0.0497
    1DPPC   C2A 2286  10.948  13.421   6.236  0.1263  0.0027 -0.0660
    1DPPC   C3A 2287  11.013  13.227   5.945 -0.0425 -0.1548  0.1625
    1DPPC   C4A 2288  11.031  13.112   5.494 -0.0824  0.3579 -0.0363
    1DPPC   C1B 2289  10.453  14.199   6.174 -0.0315 -0.1439 -0.0224
    1DPPC   C2B 2290  10.628  14.062   5.831  0.2046  0.0793 -0.2322
    1DPPC   C3B 2291  10.682  14.027   5.304 -0.1928  0.0969  0.2072
    1DPPC   C4B 2292  10.958  13.642   5.157 -0.0455  0.0197  0.1314
    1DPPC   NC3 2293  19.159  18.608   7.683 -0.0230 -0.2228  0.4235
    1DPPC   PO4 2294  18.898  18.546   7.305  0.0627  0.1945 -0.0619
    1DPPC   GL1 2295  18.855  18.459   6.847  0.6847  0.1145  0.1060
    1DPPC   GL2 2296  19.091  18.355   6.512 -0.1203 -0.5313 -0.0434
    1DPPC   C1A 2297  18.640  18.483   6.525  0.0008  0.1838  0.0388
    1DPPC   C2A 2298  18.576  18.756   6.148 -0.0782 -0.0273 -0.0661
    1DPPC   C3A 2299  18.594  18.696   5.683  0.2546 -0.0712 -0.2424
    1DPPC   C4A 2300  18.474  18.757   5.253  0.2859  0.1796  0.1786
    1DPPC   C1B 2301  18.959  18.207   6.142  0.0207 -0.3783  0.0552
    1DPPC   C2B 2302  18.909  18.206   5.832  0.0554 -0.3949  0.1922
    1DPPC   C3B 2303  18.926  18.241   5.384  0.0938 -0.1390 -0.1326
    1DPPC   C4B 2304  18.807  18.049   5.007  0.0278 -0.1095  0.0195
    1DPPC   NC3 2305  15.207  21.791   6.255  0.1030 -0.1286  0.2849
    1DPPC   PO4 2306  14.990  21.385   6.472 -0.0504  0.1096 -0.4120
    1DPPC   GL1 2307  15.180  20.966   6.402  0.3726 -0.0216 -0.0490
    1DPPC   GL2 2308  15.506  20.850   6.262 -0.1925 -0.0632 -0.1709
    1DPPC   C1A 2309  15.093  20.614   6.156  0.1252 -0.0549  0.2579
    1DPPC   C2A 2310  14.851  20.375   5.912 -0.1893  0.0780 -0.3302
    1DPPC   C3A 2311  14.922  20.296   5.458  0.0416 -0.2294 -0.1827
    1DPPC   C4A 2312  15.042  20.346   5.043 -0.2241  0.1919  0.1660
    1DPPC   C1B 2313  15.640  20.891   5.837 -0.1527  0.2773 -0.3494
    1DPPC   C2B 2314  15.413  20.968   5.408 -0.0375 -0.1947  0.2587
    1DPPC   C3B 2315  15.720  20.985   5.144  0.0058 -0.0996  0.1817
    1DPPC   C4B 2316  16.101  20.939   4.922  0.0977 -0.2052  0.0249
    1DPPC   NC3 2317   8.607   2.665   7.429  0.1293  0.1896 -0.2231
    1DPPC   PO4 2318   8.710   2.236   7.279 -0.0716 -0.1682 -0.1676
    1DPPC   GL1 2319   8.963   2.419   6.905  0.1671  0.1396  0.1051
    1DPPC   GL2 2320   9.278   2.208   6.883 -0.0710  0.1269 -0.0173
    1DPPC   C1A 2321   9.177   2.651   6.618 -0.0113 -0.0167 -0.2264
    1DPPC   C2A 2322   9.303   2.445   6.256 -0.0821  0.0119  0.1553
    1DPPC   C3A 2323   9.649   2.552   5.923  0.0969  0.0346 -0.0296
    1DPPC   C4A 2324   9.564   2.865   5.541 -0.0358  0.1469  0.1127
    1DPPC   C1B 2325   9.119   2.100   6.518 -0.0180  0.0960 -0.0601
    1DPPC   C2B 2326   9.085   1.961   6.117 -0.0587  0.0065  0.1469
    1DPPC   C3B 2327   9.160   2.236   5.847  0.3217 -0.0081 -0.0470
    1DPPC   C4B 2328   9.316   2.451   5.528 -0.0720 -0.0108  0.1941
    1DPPC   NC3 2329   8.274  24.006   5.646  0.2146 -0.1560  0.0750
    1DPPC   PO4 2330   8.032  23.816   5.858  0.0369 -0.0116 -0.0718
    1DPPC   GL1 2331   7.893  23.651   5.434 -0.0017 -0.0096 -0.1275
    1DPPC   GL2 2332   7.645  23.500   5.604 -0.2544 -0.0371 -0.1555
    1DPPC   C1A 2333   7.816  24.055   5.147  0.0619 -0.1153  0.1557
    1DPPC   C2A 2334   7.711  24.291   4.791 -0.1009 -0.1176 -0.3178
    1DPPC   C3A 2335   7.621  24.365   4.366 -0.1060 -0.1751  0.2012
    1DPPC   C4A 2336   7.321  24.504   4.000  0.1793  0.0238 -0.1596
    1DPPC   C1B 2337   7.453  23.728   5.233 -0.2711 -0.1825  0.2232
    1DPPC   C2B 2338   7.286  23.818   4.833  0.1668  0.2345  0.2086
    1DPPC   C3B 2339   7.290  23.857   4.382 -0.0049 -0.0524 -0.1766
    1DPPC   C4B 2340   7.002  24.156   4.201 -0.2422  0.2006 -0.1421
    1DPPC   NC3 2341   6.881  12.245   7.168 -0.1451  0.4350  0.1941
    1DPPC   PO4 2342   6.995  11.831   6.958 -0.1484  0.1697 -0.2289
    1DPPC   GL1 2343   7.105  11.634   6.586  0.3896  0.1901 -0.1531
    1DPPC   GL2 2344   6.837  11.796   6.470  0.0194 -0.0799  0.0215
    1DPPC   C1A 2345   7.021  11.388   6.143 -0.0567 -0.2727 -0.0901
    1DPPC   C2A 2346   6.857  11.403   5.765  0.0367 -0.1123  0.3130
    1DPPC   C3A 2347   6.717  11.476   5.208 -0.1003  0.3472 -0.0561
    1DPPC   C4A 2348   6.866  11.827   4.989 -0.0520  0.1843  0.0482
    1DPPC   C1B 2349   7.106  11.938   6.084 -0.1603 -0.1384  0.0367
    1DPPC   C2B 2350   7.326  11.901   5.718 -0.1118 -0.3379  0.2531
    1DPPC   C3B 2351   7.693  11.888   5.585 -0.0972  0.4175 -0.1022
    1DPPC   C4B 2352   8.141  11.708   5.497 -0.2712 -0.0374  0.3112
    1DPPC   NC3 2353  11.196  14.261   7.109 -0.2434 -0.2087 -0.0167
    1DPPC   PO4 2354  10.931  14.462   6.850 -0.0805  0.0019 -0.2615
    1DPPC   GL1 2355  11.035  14.630   6.460  0.0037 -0.2341  0.1097
    1DPPC   GL2 2356  10.897  14.316   6.350  0.0756 -0.0028  0.1112
    1DPPC   C1A 2357  11.015  14.741   6.056 -0.0620 -0.0226 -0.0703
    1DPPC   C2A 2358  10.986  14.709   5.577 -0.0901 -0.0225  0.1949
    1DPPC   C3A 2359  11.048  14.309   5.463  0.0773  0.0296 -0.1002
    1DPPC   C4A 2360  11.008  14.361   5.075  0.1559 -0.0108 -0.1089
    1DPPC   C1B 2361  11.106  14.268   5.948  0.1251  0.0758  0.0000
    1DPPC   C2B 2362  11.143  13.943   5.747  0.2630 -0.4103  0.2236
    1DPPC   C3B 2363  11.348  13.633   5.455 -0.0392 -0.1078 -0.0244
    1DPPC   C4B 2364  11.303  13.271   5.130  0.2124  0.0501  0.3216
    1DPPC   NC3 2365  17.706  10.010   6.229  0.0391  0.0604 -0.4157
    1DPPC   PO4 2366  18.108   9.836   6.227 -0.0491  0.0611 -0.2493
    1DPPC   GL1 2367  18.251   9.864   5.772  0.0140  0.4910  0.1519
    1DPPC   GL2 2368  17.926  10.047   5.763 -0.3423  0.0123  0.1439
    1DPPC   C1A 2369  18.136   9.700   5.403 -0.0581 -0.0578  0.3927
    1DPPC   C2A 2370  18.164   9.786   5.081  0.0323  0.1219  0.2725
    1DPPC   C3A 2371  17.962   9.697   4.675 -0.0496  0.2372  0.1351
    1DPPC   C4A 2372  17.770   9.452   4.376 -0.1818  0.3583  0.2194
    1DPPC   C1B 2373  17.642   9.948   5.443 -0.2213 -0.1396 -0.0920
    1DPPC   C2B 2374  17.621   9.857   4.987  0.3709 -0.3604  0.0268
    1DPPC   C3B 2375  17.565   9.927   4.495  0.1600  0.2906 -0.4591
    1DPPC   C4B 2376  17.709  10.257   4.179 -0.1801  0.0733 -0.0936
    1DPPC   NC3 2377  11.112  16.301   6.942  0.4268  0.1597 -0.0063
    1DPPC   PO4 2378  11.083  16.219   6.523 -0.1687  0.0114 -0.2992
    1DPPC   GL1 2379  11.170  16.435   6.146 -0.2202 -0.0464  0.1558
    1DPPC   GL2 2380  10.929  16.665   6.109  0.3748  0.2142 -0.0415
    1DPPC   C1A 2381  11.256  16.430   5.682  0.1397  0.0065 -0.0764
    1DPPC   C2A 2382  11.255  16.370   5.278  0.2580 -0.0315 -0.2353
    1DPPC   C3A 2383  11.336  16.313   4.835  0.0476 -0.2456  0.1134
    1DPPC   C4A 2384  11.464  16.374   4.446  0.0302 -0.0024  0.1409
    1DPPC   C1B 2385  10.778  16.544   5.791  0.0468  0.1993  0.2516
    1DPPC   C2B 2386  10.753  16.388   5.366 -0.1183  0.1168 -0.0407
    1DPPC   C3B 2387  10.826  16.422   4.922 -0.0692 -0.1033  0.2327
    1DPPC   C4B 2388  10.888  16.387   4.517 -0.1309  0.0802 -0.1262
    1DPPC   NC3 2389  18.440  17.802   7.123  0.1450 -0.0463  0.1289
    1DPPC   PO4 2390  18.762  17.611   6.940  0.1682  0.2021 -0.2652
    1DPPC   GL1 2391  18.506  17.600   6.605 -0.0647 -0.0932 -0.1118
    1DPPC   GL2 2392  18.209  17.783   6.594 -0.0421  0.3028  0.1576
    1DPPC   C1A 2393  18.542  17.765   6.237 -0.2700  0.0688  0.0433
    1DPPC   C2A 2394  18.689  17.788   5.869 -0.0916 -0.0110 -0.2307
    1DPPC   C3A 2395  18.743  17.802   5.506 -0.0368 -0.4541  0.1093
    1DPPC   C4A 2396  18.863  17.571   5.230  0.1616 -0.2325  0.0514
    1DPPC   C1B 2397  18.239  18.119   6.311  0.1580  0.3899  0.1484
    1DPPC   C2B 2398  18.449  18.231   6.042  0.2651 -0.4118  0.2354
    1DPPC   C3B 2399  18.458  18.177   5.578 -0.1440  0.1235 -0.1747
    1DPPC   C4B 2400  18.380  18.000   5.263  0.2269  0.0615  0.1398
    1DPPC   NC3 2401  16.202  23.250   6.696 -0.1604 -0.2651 -0.0204
    1DPPC   PO4 2402  16.237  23.617   6.825  0.0748 -0.0671  0.1070
    1DPPC   GL1 2403  16.362  23.914   6.483 -0.4022 -0.0708  0.3601
    1DPPC   GL2 2404  16.657  24.095   6.499 -0.0592  0.3656 -0.0379
    1DPPC   C1A 2405  16.447  23.882   6.078 -0.3697  0.1973  0.0819
    1DPPC   C2A 2406  16.649  23.957   5.688  0.2347  0.3532  0.0196
    1DPPC   C3A 2407  16.754  23.915   5.265 -0.2253  0.0270 -0.0958
    1DPPC   C4A 2408  17.049  24.041   5.034 -0.2557 -0.1965  0.1079
    1DPPC   C1B 2409  16.929  24.092   6.150 -0.2683 -0.0609  0.2035
    1DPPC   C2B 2410  17.293  24.197   5.890  0.1640  0.1448 -0.0354
    1DPPC   C3B 2411  17.570  24.193   5.478 -0.0200 -0.0022  0.3281
    1DPPC   C4B 2412  17.529  24.104   5.061 -0.0501 -0.0102  0.1466
    1DPPC   NC3 2413  22.480  15.534   6.070 -0.0381  0.3720 -0.0447
    1DPPC   PO4 2414  22.870  15.631   6.305  0.0590  0.0814 -0.0829
    1DPPC   GL1 2415  22.990  15.546   5.977  0.1560  0.1531  0.1459
    1DPPC   GL2 2416  23.237  15.437   5.800 -0.1527  0.1336  0.0493
    1DPPC   C1A 2417  22.788  15.642   5.518  0.3342  0.0195 -0.3000
    1DPPC   C2A 2418  22.814  15.562   5.088  0.0148  0.1261  0.0075
    1DPPC   C3A 2419  22.708  15.705   4.635 -0.1635  0.1078  0.0018
    1DPPC   C4A 2420  22.516  15.852   4.264 -0.3477  0.1337 -0.0877
    1DPPC   C1B 2421  22.944  15.173   5.681  0.0881 -0.1614 -0.1405
    1DPPC   C2B 2422  22.751  14.799   5.727 -0.1610 -0.1773  0.1226
    1DPPC   C3B 2423  22.520  14.472   5.570 -0.0542  0.0992  0.1048
    1DPPC   C4B 2424  22.519  14.064   5.467 -0.2088 -0.1497  0.1609
    1DPPC   NC3 2425   9.834  11.949   7.564  0.0836 -0.1787  0.1375
    1DPPC   PO4 2426  10.085  11.694   7.290 -0.3076  0.0177  0.1540
    1DPPC   GL1 2427  10.056  11.798   6.823 -0.0010  0.0722  0.0670
    1DPPC   GL2 2428   9.814  12.023   6.577  0.1628 -0.1940 -0.4987
    1DPPC   C1A 2429  10.129  11.528   6.478  0.0800 -0.0017  0.0193
    1DPPC   C2A 2430   9.904  11.387   6.157 -0.2248  0.1201 -0.2826
    1DPPC   C3A 2431   9.797  11.301   5.764 -0.2215  0.1697  0.1022
    1DPPC   C4A 2432   9.428  11.245   5.408 -0.0740  0.0142  0.2042
    1DPPC   C1B 2433   9.950  11.940   6.245  0.0277 -0.0080  0.0520
    1DPPC   C2B 2434  10.193  11.768   5.975  0.0636  0.1334 -0.2678
    1DPPC   C3B 2435  10.302  11.599   5.573  0.0134  0.0305  0.0274
    1DPPC   C4B 2436   9.961  11.416   5.330  0.0746 -0.0468 -0.0020
    1DPPC   NC3 2437  13.718  12.509   6.913 -0.2802  0.1048 -0.2127
    1DPPC   PO4 2438  14.122  12.633   6.964 -0.0407 -0.0207 -0.1603
    1DPPC   GL1 2439  14.052  12.619   6.504  0.3485  0.0450  0.3118
    1DPPC   GL2 2440  13.783  12.517   6.425  0.1140 -0.0254  0.1062
    1DPPC   C1A 2441  14.177  12.826   6.194 -0.0773 -0.2771  0.0376
    1DPPC   C2A 2442  14.084  12.910   5.814  0.2865 -0.1081  0.0424
    1DPPC   C3A 2443  14.118  12.844   5.374 -0.0744 -0.2035  0.2368
    1DPPC   C4A 2444  13.994  12.759   4.951  0.2294 -0.0144  0.1385
    1DPPC   C1B 2445  13.757  12.620   6.022 -0.3538  0.3720  0.3931
    1DPPC   C2B 2446  13.628  12.729   5.614  0.0020 -0.0188 -0.0691
    1DPPC   C3B 2447  13.574  12.653   5.214 -0.0698 -0.1220 -0.0171
    1DPPC   C4B 2448  13.488  12.939   4.843 -0.0957  0.1034  0.2199
    1DPPC   NC3 2449  20.199   8.208   6.848  0.1300 -0.0781 -0.1617
    1DPPC   PO4 2450  20.221   7.901   6.442 -0.0322 -0.1959 -0.1295
    1DPPC   GL1 2451  20.055   8.066   6.107 -0.0386  0.0427 -0.2068
    1DPPC   GL2 2452  19.775   7.926   6.102 -0.1586  0.4356 -0.1359
    1DPPC   C1A 2453  20.085   7.937   5.727 -0.1604 -0.1396 -0.1432
    1DPPC   C2A 2454  20.112   7.881   5.369 -0.0006  0.2066  0.2651
    1DPPC   C3A 2455  20.100   7.663   5.035  0.0101 -0.0111 -0.0784
    1DPPC   C4A 2456  20.085   7.306   4.795  0.1559  0.1075 -0.1818
    1DPPC   C1B 2457  19.642   8.216   5.736  0.0676 -0.0825  0.5244
    1DPPC   C2B 2458  19.704   8.225   5.313 -0.1928  0.1971  0.0199
    1DPPC   C3B 2459  19.773   8.510   4.986  0.1836  0.3138 -0.0907
    1DPPC   C4B 2460  19.826   8.516   4.549  0.0832 -0.1919  0.3347
    1DPPC   NC3 2461  21.394  16.493   6.495 -0.2302 -0.0499  0.3143
    1DPPC   PO4 2462  20.971  16.362   6.612  0.3325  0.2714  0.1691
    1DPPC   GL1 2463  21.007  16.559   6.176  0.3474  0.0686 -0.1376
    1DPPC   GL2 2464  21.277  16.265   6.023  0.2042  0.0733  0.3256
    1DPPC   C1A 2465  20.741  16.671   5.865  0.0387 -0.0589 -0.0441
    1DPPC   C2A 2466  20.847  16.646   5.346  0.0862  0.0805 -0.1208
    1DPPC   C3A 2467  20.775  16.620   4.957  0.0746  0.0961 -0.2972
    1DPPC   C4A 2468  21.032  16.494   4.524 -0.2727  0.2328  0.2758
    1DPPC   C1B 2469  20.810  16.204   5.958  0.0639  0.1296  0.0184
    1DPPC   C2B 2470  20.549  16.231   5.672  0.0174  0.3569 -0.1450
    1DPPC   C3B 2471  20.590  16.223   5.240  0.1099 -0.2233 -0.2519
    1DPPC   C4B 2472  20.759  16.152   4.837  0.1563 -0.0225  0.1896
    1DPPC   NC3 2473   9.466  15.937   6.702  0.1499 -0.2991 -0.0883
    1DPPC   PO4 2474   9.589  15.554   6.597 -0.1815  0.2110  0.2137
    1DPPC   GL1 2475   9.866  15.377   6.266  0.3382  0.2471  0.0154
    1DPPC   GL2 2476  10.074  15.210   6.310  0.0275 -0.4450 -0.0513
    1DPPC   C1A 2477   9.943  15.303   5.759 -0.2810 -0.1156 -0.0305
    1DPPC   C2A 2478  10.076  15.215   5.341 -0.1526 -0.0254 -0.0143
    1DPPC   C3A 2479  10.102  15.086   4.907 -0.0182  0.3961 -0.1548
    1DPPC   C4A 2480  10.328  14.938   4.632 -0.0774  0.0244  0.0953
    1DPPC   C1B 2481  10.418  15.064   6.186  0.0941  0.2264 -0.1551
    1DPPC   C2B 2482  10.398  14.966   5.631  0.1649  0.2376  0.1438
    1DPPC   C3B 2483  10.543  14.992   5.221  0.1718 -0.1362  0.3065
    1DPPC   C4B 2484  10.975  14.878   4.967  0.3602  0.0416  0.1043
    1DPPC   NC3 2485  13.336  15.120   7.144  0.0084 -0.0464  0.0428
    1DPPC   PO4 2486  13.320  14.696   6.910 -0.1828  0.0572 -0.2711
    1DPPC   GL1 2487  13.346  14.678   6.448 -0.4297 -0.1539  0.1569
    1DPPC   GL2 2488  13.588  14.758   6.298  0.1261 -0.0634 -0.3970
    1DPPC   C1A 2489  13.213  14.906   6.047 -0.0303 -0.3957  0.1365
    1DPPC   C2A 2490  13.182  14.900   5.597  0.1468 -0.1115 -0.0507
    1DPPC   C3A 2491  13.214  14.962   5.191 -0.1035  0.0348 -0.0923
    1DPPC   C4A 2492  12.950  15.151   4.774  0.0163 -0.0487 -0.0248
    1DPPC   C1B 2493  13.614  14.755   5.862  0.0388  0.2637  0.1685
    1DPPC   C2B 2494  13.589  14.689   5.394 -0.1309 -0.0113 -0.2011
    1DPPC   C3B 2495  13.718  14.757   4.950  0.2650  0.1640 -0.2835
    1DPPC   C4B 2496  13.677  14.437   4.725 -0.0136  0.1589  0.1442
    1DPPC   NC3 2497  12.439  15.047   7.494  0.0694 -0.0751  0.1069
    1DPPC   PO4 2498  12.375  14.886   7.081 -0.2694  0.0853  0.1251
    1DPPC   GL1 2499  12.540  14.900   6.712  0.0507 -0.0387  0.1003
    1DPPC   GL2 2500  12.855  14.622   6.609  0.3268 -0.1785  0.1331
    1DPPC   C1A 2501  12.694  14.999   6.300  0.1392 -0.0989  0.1512
    1DPPC   C2A 2502  12.614  14.807   5.943  0.0676 -0.2254  0.1890
    1DPPC   C3A 2503  12.607  14.755   5.485 -0.0965  0.1763 -0.1279
    1DPPC   C4A 2504  12.779  15.114   5.300  0.5349  0.1916 -0.0357
    1DPPC   C1B 2505  12.893  14.421   6.176  0.2672  0.2869  0.0883
    1DPPC   C2B 2506  12.967  14.522   5.767 -0.2059  0.0576 -0.0272
    1DPPC   C3B 2507  13.004  14.485   5.310 -0.0825 -0.0213 -0.0308
    1DPPC   C4B 2508  13.343  14.439   5.075 -0.0207  0.0685  0.1953
    1DPPC   NC3 2509  15.106  13.427   6.891 -0.1195 -0.0038 -0.0784
    1DPPC   PO4 2510  15.079  13.176   6.484 -0.1364  0.2666  0.0937
    1DPPC   GL1 2511  14.893  13.406   6.150  0.0157  0.0186 -0.0689
    1DPPC   GL2 2512  14.613  13.670   6.214  0.0441 -0.1661  0.0047
    1DPPC   C1A 2513  15.040  13.206   5.794  0.2473  0.0041 -0.1911
    1DPPC   C2A 2514  15.217  13.053   5.500  0.1162  0.0364 -0.0373
    1DPPC   C3A 2515  15.323  13.129   5.003 -0.1163 -0.1331 -0.5411
    1DPPC   C4A 2516  15.192  13.275   4.563 -0.0665  0.3379  0.1636
    1DPPC   C1B 2517  14.907  13.836   5.820 -0.0289  0.0693 -0.2452
    1DPPC   C2B 2518  14.862  13.920   5.437  0.2524 -0.0788 -0.2726
    1DPPC   C3B 2519  14.910  13.855   5.066  0.0190  0.2665 -0.2597
    1DPPC   C4B 2520  14.619  14.180   4.840  0.2098  0.1244 -0.0639
    1DPPC   NC3 2521  10.678   8.054   7.503  0.3144 -0.1305  0.1665
    1DPPC   PO4 2522  10.739   7.585   7.435 -0.0280 -0.0955  0.0057
    1DPPC   GL1 2523  10.415   7.678   7.091  0.3860 -0.2031  0.0865
    1DPPC   GL2 2524  10.316   7.886   7.121  0.1348  0.0768 -0.1746
    1DPPC   C1A 2525  10.335   7.435   6.765 -0.0961 -0.3392 -0.0937
    1DPPC   C2A 2526  10.436   7.503   6.394 -0.0974 -0.1964  0.0689
    1DPPC   C3A 2527  10.338   7.485   5.990 -0.2225  0.0298 -0.3997
    1DPPC   C4A 2528  10.187   7.654   5.594 -0.2920 -0.1151  0.0414
    1DPPC   C1B 2529  10.396   7.929   6.691  0.0464 -0.0371 -0.1640
    1DPPC   C2B 2530  10.471   8.302   6.429 -0.2150 -0.1055  0.3094
    1DPPC   C3B 2531  10.362   8.530   5.989 -0.0696  0.0461  0.2490
    1DPPC   C4B 2532  10.231   8.649   5.629 -0.0002 -0.0807 -0.2474
    1DPPC   NC3 2533   8.866  12.523   7.301 -0.2372  0.1876  0.1838
    1DPPC   PO4 2534   8.511  12.326   7.026  0.1889 -0.2664 -0.2528
    1DPPC   GL1 2535   8.531  11.980   6.819 -0.1643 -0.0236 -0.2085
    1DPPC   GL2 2536   8.449  11.650   6.862  0.3212 -0.0374 -0.0779
    1DPPC   C1A 2537   8.490  11.898   6.400 -0.0109 -0.0244 -0.0056
    1DPPC   C2A 2538   8.591  11.598   6.043 -0.0409  0.1052 -0.1847
    1DPPC   C3A 2539   8.385  11.356   5.715  0.0219  0.1760 -0.2383
    1DPPC   C4A 2540   8.135  11.184   5.476 -0.1548 -0.1132 -0.1421
    1DPPC   C1B 2541   8.088  11.346   6.642 -0.2508 -0.1426  0.1865
    1DPPC   C2B 2542   7.878  11.223   6.215 -0.3007  0.0293 -0.2884
    1DPPC   C3B 2543   7.845  11.434   5.833 -0.0473  0.0714  0.1682
    1DPPC   C4B 2544   7.712  11.430   5.355  0.3363  0.0375 -0.0970
    1DPPC   NC3 2545  15.930  13.858   6.927 -0.0529  0.2094 -0.1238
    1DPPC   PO4 2546  15.602  13.803   6.607 -0.0725 -0.1222  0.0412
    1DPPC   GL1 2547  15.563  13.814   6.175  0.1180  0.0188 -0.1585
    1DPPC   GL2 2548  15.378  13.627   6.002 -0.0723  0.4545  0.1158
    1DPPC   C1A 2549  15.730  13.877   5.734 -0.1588  0.1991  0.0999
    1DPPC   C2A 2550  15.713  13.894   5.219 -0.0747 -0.1151 -0.2118
    1DPPC   C3A 2551  15.587  14.182   4.858 -0.1231  0.3091  0.1385
    1DPPC   C4A 2552  15.355  14.574   4.596  0.1997 -0.0256  0.0608
    1DPPC   C1B 2553  15.261  13.607   5.593  0.2121  0.0554 -0.3296
    1DPPC   C2B 2554  15.264  13.613   5.270 -0.0440 -0.2674 -0.1107
    1DPPC   C3B 2555  15.362  13.668   4.833 -0.1646 -0.0332  0.2517
    1DPPC   C4B 2556  15.557  13.834   4.560  0.1293 -0.0136 -0.1002
    1DPPC   NC3 2557  11.854  14.876   7.069  0.2245 -0.2516 -0.0600
    1DPPC   PO4 2558  11.640  15.243   6.864 -0.0923  0.0472 -0.1714
    1DPPC   GL1 2559  11.844  14.941   6.558 -0.2119 -0.0468 -0.0531
    1DPPC   GL2 2560  12.084  14.720   6.618 -0.0602 -0.0537  0.1030
    1DPPC   C1A 2561  12.075  14.913   6.180  0.0215  0.1168 -0.2055
    1DPPC   C2A 2562  12.156  14.697   5.775 -0.0325 -0.0446 -0.2546
    1DPPC   C3A 2563  12.088  14.662   5.371 -0.0241  0.2099  0.3239
    1DPPC   C4A 2564  11.948  14.792   4.985  0.0317  0.0691 -0.1199
    1DPPC   C1B 2565  12.367  14.566   6.393 -0.2107 -0.0314  0.0929
    1DPPC   C2B 2566  12.448  14.368   6.010  0.1217  0.0502 -0.1120
    1DPPC   C3B 2567  12.455  14.234   5.461  0.0916 -0.1090  0.1128
    1DPPC   C4B 2568  12.541  14.379   5.161 -0.1745  0.1662 -0.3143
    1DPPC   NC3 2569   9.835  15.529   7.103  0.0919 -0.2045 -0.1420
    1DPPC   PO4 2570   9.993  15.979   6.833  0.0818  0.1254 -0.5024
    1DPPC   GL1 2571  10.012  15.879   6.432  0.2155  0.0787  0.3387
    1DPPC   GL2 2572   9.735  15.890   6.239  0.4436  0.0543 -0.0508
    1DPPC   C1A 2573  10.284  16.130   6.022  0.1260 -0.2286  0.2178
    1DPPC   C2A 2574  10.388  16.077   5.543 -0.2226 -0.1828  0.2758
    1DPPC   C3A 2575  10.538  15.936   5.078  0.0654  0.0630 -0.1264
    1DPPC   C4A 2576  10.629  15.862   4.646 -0.0696 -0.3679  0.1758
    1DPPC   C1B 2577   9.855  15.837   5.709 -0.0139 -0.4939 -0.1879
    1DPPC   C2B 2578  10.028  15.830   5.358 -0.0383  0.6526 -0.3129
    1DPPC   C3B 2579  10.000  15.598   5.034 -0.2361 -0.3520  0.1083
    1DPPC   C4B 2580   9.686  15.336   4.791 -0.1286  0.0781  0.0962
    1DPPC   NC3 2581  17.157  10.137   6.505 -0.0433 -0.1502 -0.2532
    1DPPC   PO4 2582  17.492  10.423   6.470 -0.2389  0.4102 -0.2530
    1DPPC   GL1 2583  17.524  10.616   6.147  0.0256 -0.0960  0.2041
    1DPPC   GL2 2584  17.317  10.861   6.063 -0.1586  0.1391 -0.0190
    1DPPC   C1A 2585  17.685  10.567   5.760  0.1757 -0.0334 -0.1316
    1DPPC   C2A 2586  17.647  10.417   5.292  0.2415  0.3335 -0.2116
    1DPPC   C3A 2587  17.421  10.287   4.857  0.3407 -0.0213  0.1452
    1DPPC   C4A 2588  17.145  10.083   4.689  0.0649  0.2737 -0.0511
    1DPPC   C1B 2589  17.288  10.781   5.545 -0.0388 -0.0136 -0.0079
    1DPPC   C2B 2590  17.295  10.786   5.094 -0.0413  0.0440 -0.0183
    1DPPC   C3B 2591  17.204  10.732   4.631 -0.4191 -0.1559  0.0202
    1DPPC   C4B 2592  17.215  10.395   4.339 -0.1070 -0.3409  0.0409
    1DPPC   NC3 2593  14.490  16.580   7.467 -0.0002 -0.0742  0.1224
    1DPPC   PO4 2594  14.302  16.557   7.015 -0.0439 -0.1369 -0.1474
    1DPPC   GL1 2595  14.426  16.451   6.586  0.1229 -0.1319 -0.0206
    1DPPC   GL2 2596  14.200  16.418   6.518 -0.0676  0.2478 -0.1659
    1DPPC   C1A 2597  14.516  16.470   6.163  0.2833  0.2291 -0.2499
    1DPPC   C2A 2598  14.728  16.456   5.877  0.1430  0.0829 -0.1010
    1DPPC   C3A 2599  14.729  16.437   5.443  0.0613 -0.3937  0.0839
    1DPPC   C4A 2600  14.909  16.551   5.094 -0.1666 -0.1637 -0.0363
    1DPPC   C1B 2601  14.049  16.314   6.136  0.1201  0.1500 -0.2226
    1DPPC   C2B 2602  14.109  16.448   5.749  0.0886 -0.1827 -0.0910
    1DPPC   C3B 2603  14.211  16.424   5.403  0.1178 -0.1630  0.3566
    1DPPC   C4B 2604  14.422  16.473   4.976 -0.0478 -0.0945 -0.1236
    1DPPC   NC3 2605  16.655  10.060   7.148  0.0863 -0.2101 -0.0802
    1DPPC   PO4 2606  16.570  10.072   6.652  0.4059  0.2192 -0.0845
    1DPPC   GL1 2607  16.299  10.052   6.319 -0.4179 -0.2569 -0.1149
    1DPPC   GL2 2608  16.400   9.815   6.141  0.0980  0.2023  0.0125
    1DPPC   C1A 2609  16.142  10.136   5.891  0.0838 -0.0918  0.2208
    1DPPC   C2A 2610  16.090  10.196   5.533 -0.0389  0.2293 -0.0496
    1DPPC   C3A 2611  16.052  10.129   5.178  0.2222 -0.0796 -0.2860
    1DPPC   C4A 2612  16.071  10.003   4.709 -0.0099  0.0245  0.3175
    1DPPC   C1B 2613  16.300   9.710   5.732 -0.1195 -0.1203 -0.0148
    1DPPC   C2B 2614  16.232   9.595   5.302 -0.0347 -0.0227  0.0573
    1DPPC   C3B 2615  16.222   9.521   4.865  0.1289 -0.0726  0.0616
    1DPPC   C4B 2616  16.182   9.233   4.412 -0.0386 -0.1171  0.0920
    1DPPC   NC3 2617   9.660  18.915   6.466  0.0875  0.0718  0.2643
    1DPPC   PO4 2618   9.793  18.526   6.504 -0.1404  0.1271  0.0132
    1DPPC   GL1 2619  10.052  18.604   6.170 -0.0842 -0.1652  0.3169
    1DPPC   GL2 2620  10.071  18.884   6.120  0.0535 -0.3967 -0.1385
    1DPPC   C1A 2621   9.975  18.334   5.808 -0.2111  0.4492  0.3637
    1DPPC   C2A 2622   9.922  18.316   5.433  0.0703  0.1817 -0.0665
    1DPPC   C3A 2623   9.908  18.290   4.983  0.3509 -0.3903 -0.2086
    1DPPC   C4A 2624  10.027  18.368   4.512  0.0527 -0.0663  0.0430
    1DPPC   C1B 2625  10.108  18.826   5.718 -0.1228 -0.0594 -0.0747
    1DPPC   C2B 2626  10.073  18.735   5.305 -0.0236 -0.1461  0.0962
    1DPPC   C3B 2627   9.992  18.769   4.869 -0.0628 -0.2407  0.1594
    1DPPC   C4B 2628   9.767  18.920   4.451  0.1145 -0.0528 -0.0799
    1DPPC   NC3 2629  17.545  13.075   6.889  0.0290  0.0953 -0.2076
    1DPPC   PO4 2630  17.688  13.524   6.902  0.1278  0.0037 -0.0020
    1DPPC   GL1 2631  17.718  13.427   6.466  0.1178 -0.3860 -0.0087
    1DPPC   GL2 2632  17.934  13.574   6.374  0.0698 -0.0203 -0.0472
    1DPPC   C1A 2633  17.778  13.068   6.104 -0.2192  0.0109 -0.0326
    1DPPC   C2A 2634  17.609  12.946   5.749 -0.0660  0.1152 -0.1436
    1DPPC   C3A 2635  17.664  12.932   5.318 -0.2241 -0.2449  0.1163
    1DPPC   C4A 2636  17.644  12.992   4.842 -0.2322  0.1926 -0.2014
    1DPPC   C1B 2637  17.882  13.546   6.015  0.2812 -0.1416  0.1391
    1DPPC   C2B 2638  17.729  13.466   5.617 -0.1145 -0.0954 -0.2247
    1DPPC   C3B 2639  17.709  13.501   5.153  0.0534 -0.1011 -0.0838
    1DPPC   C4B 2640  17.627  13.490   4.703 -0.0217 -0.1522  0.1035
    1DPPC   NC3 2641  11.577  17.587   6.332 -0.0581 -0.1838 -0.1739
    1DPPC   PO4 2642  11.149  17.894   6.234 -0.1332  0.0236 -0.0935
    1DPPC   GL1 2643  11.299  17.819   5.856  0.2946  0.1475  0.1463
    1DPPC   GL2 2644  11.215  17.499   5.792 -0.1609 -0.2824  0.2723
    1DPPC   C1A 2645  11.423  17.768   5.398 -0.0149  0.0710  0.1841
    1DPPC   C2A 2646  11.382  17.688   5.034  0.0170 -0.0522  0.1270
    1DPPC   C3A 2647  11.161  17.730   4.680 -0.1245 -0.0766  0.1316
    1DPPC   C4A 2648  10.859  17.711   4.445  0.1610 -0.2790  0.5332
    1DPPC   C1B 2649  11.069  17.357   5.408 -0.1679  0.1353  0.1040
    1DPPC   C2B 2650  10.994  17.326   5.043  0.0798  0.0904  0.1728
    1DPPC   C3B 2651  10.881  17.248   4.708 -0.0982 -0.0066 -0.0725
    1DPPC   C4B 2652  10.971  17.251   4.305  0.0725  0.1229  0.1675
    1DPPC   NC3 2653  10.176  16.402   6.676 -0.1437  0.2704 -0.2440
    1DPPC   PO4 2654   9.936  16.819   6.618 -0.1971 -0.0424 -0.1797
    1DPPC   GL1 2655   9.651  16.818   6.179 -0.2624  0.0355 -0.0567
    1DPPC   GL2 2656   9.377  16.991   6.139 -0.1311 -0.2201 -0.0656
    1DPPC   C1A 2657   9.603  16.957   5.698  0.2437  0.0273  0.0887
    1DPPC   C2A 2658   9.518  17.243   5.422  0.1664 -0.0342  0.3379
    1DPPC   C3A 2659   9.657  17.331   5.050 -0.4518 -0.0008  0.1829
    1DPPC   C4A 2660   9.754  17.297   4.638  0.0682 -0.1253  0.2146
    1DPPC   C1B 2661   9.091  17.097   5.828  0.1338 -0.0572  0.0910
    1DPPC   C2B 2662   9.024  17.102   5.377  0.2113 -0.0854  0.1961
    1DPPC   C3B 2663   9.159  17.275   4.980 -0.2660  0.0248 -0.3408
    1DPPC   C4B 2664   9.280  17.582   4.738  0.0293  0.0474  0.3020
    1DPPC   NC3 2665  19.151  15.862   7.187 -0.2754 -0.1874 -0.1950
    1DPPC   PO4 2666  19.209  15.989   6.747  0.2267  0.1659 -0.1233
    1DPPC   GL1 2667  19.188  16.312   6.396  0.1512  0.1263 -0.1220
    1DPPC   GL2 2668  19.129  16.115   6.204  0.0632 -0.0143 -0.0453
    1DPPC   C1A 2669  19.279  16.526   5.950 -0.0411  0.0961 -0.0745
    1DPPC   C2A 2670  19.334  16.652   5.531 -0.1212 -0.2470 -0.0056
    1DPPC   C3A 2671  19.356  16.699   5.061  0.0772  0.0170 -0.0606
    1DPPC   C4A 2672  19.373  16.980   4.701 -0.0695  0.4450 -0.0594
    1DPPC   C1B 2673  19.260  16.081   5.721 -0.1099 -0.2492  0.2130
    1DPPC   C2B 2674  19.262  16.209   5.310 -0.0308  0.4233  0.0479
    1DPPC   C3B 2675  19.339  16.143   4.927 -0.0950 -0.0704 -0.4837
    1DPPC   C4B 2676  19.098  16.120   4.563  0.0583  0.0880  0.0953
    1DPPC   NC3 2677  13.019  12.105   7.212 -0.1096  0.2281 -0.0604
    1DPPC   PO4 2678  13.334  12.193   6.940 -0.0360  0.0718  0.0788
    1DPPC   GL1 2679  13.361  12.164   6.523 -0.0513 -0.0903  0.1417
    1DPPC   GL2 2680  13.337  11.767   6.417  0.0747  0.2058 -0.0531
    1DPPC   C1A 2681  13.391  12.323   6.137  0.4644 -0.3670 -0.2266
    1DPPC   C2A 2682  13.524  12.271   5.786  0.4297  0.1354 -0.3362
    1DPPC   C3A 2683  13.348  12.317   5.430  0.2706  0.0324 -0.1597
    1DPPC   C4A 2684  13.201  12.349   4.897 -0.2957 -0.1829  0.1027
    1DPPC   C1B 2685  13.316  11.820   6.041 -0.1217 -0.1800 -0.1219
    1DPPC   C2B 2686  13.124  11.837   5.722 -0.0264  0.0250 -0.0874
    1DPPC   C3B 2687  12.825  11.987   5.354  0.1930 -0.0425  0.0527
    1DPPC   C4B 2688  12.538  12.246   5.201 -0.2179  0.0460 -0.0684
    1DPPC   NC3 2689  16.510  17.401   7.264 -0.0041  0.2101 -0.0454
    1DPPC   PO4 2690  16.635  17.309   6.838  0.1852  0.0193  0.2170
    1DPPC   GL1 2691  16.711  17.244   6.363 -0.3423 -0.1621 -0.2036
    1DPPC   GL2 2692  16.541  16.936   6.494 -0.0345  0.1235  0.2149
    1DPPC   C1A 2693  16.756  17.452   5.963  0.0497 -0.0798  0.2219
    1DPPC   C2A 2694  16.806  17.593   5.611  0.2051  0.2117 -0.0283
    1DPPC   C3A 2695  16.954  17.773   5.273 -0.0040  0.1717 -0.1023
    1DPPC   C4A 2696  17.268  17.810   4.958 -0.0453 -0.1483 -0.3410
    1DPPC   C1B 2697  16.253  16.670   6.181  0.0933 -0.1630 -0.1519
    1DPPC   C2B 2698  16.274  16.782   5.723  0.0245 -0.0473  0.1306
    1DPPC   C3B 2699  16.238  16.772   5.313 -0.0852  0.1332 -0.0741
    1DPPC   C4B 2700  16.211  16.706   4.886 -0.0724  0.2666  0.1714
    1DPPC   NC3 2701  15.640  12.873   6.415 -0.0795  0.3540 -0.1663
    1DPPC   PO4 2702  16.053  13.150   6.445 -0.1170 -0.3839  0.0902
    1DPPC   GL1 2703  16.211  13.022   6.106  0.3539 -0.1296  0.1264
    1DPPC   GL2 2704  16.582  13.017   6.044  0.1531  0.0046 -0.0912
    1DPPC   C1A 2705  16.203  12.942   5.688 -0.1051 -0.1802  0.1672
    1DPPC   C2A 2706  16.164  12.901   5.250  0.3058 -0.0892  0.0878
    1DPPC   C3A 2707  15.934  12.990   4.830  0.3092  0.1133  0.0899
    1DPPC   C4A 2708  15.655  12.896   4.452  0.0137  0.1597 -0.0848
    1DPPC   C1B 2709  16.703  13.056   5.570 -0.1873 -0.1493 -0.0291
    1DPPC   C2B 2710  16.755  13.008   5.166  0.2227  0.0728  0.1243
    1DPPC   C3B 2711  16.814  13.192   4.795 -0.0967 -0.0361 -0.1060
    1DPPC   C4B 2712  16.721  13.124   4.337 -0.0653 -0.2518 -0.0990
    1DPPC   NC3 2713  13.425  18.984   6.955  0.0440 -0.2366 -0.1351
    1DPPC   PO4 2714  13.430  19.098   6.464 -0.0967  0.3129 -0.0222
    1DPPC   GL1 2715  13.532  19.056   6.127 -0.0259  0.1196 -0.1019
    1DPPC   GL2 2716  13.503  18.709   6.011  0.0899 -0.2925 -0.1273
    1DPPC   C1A 2717  13.568  19.029   5.691 -0.2255 -0.0724 -0.2638
    1DPPC   C2A 2718  13.641  19.026   5.220 -0.0740  0.0502 -0.0366
    1DPPC   C3A 2719  13.685  19.119   4.865 -0.1483  0.0068 -0.3081
    1DPPC   C4A 2720  13.677  19.320   4.444 -0.3153 -0.0863 -0.2688
    1DPPC   C1B 2721  13.741  18.553   5.609  0.1897  0.3317  0.2108
    1DPPC   C2B 2722  13.933  18.331   5.310 -0.0658  0.0988  0.4323
    1DPPC   C3B 2723  13.894  18.223   4.874  0.0672  0.0454  0.0188
    1DPPC   C4B 2724  13.785  18.338   4.396  0.3532 -0.2719 -0.0319
    1DPPC   NC3 2725  17.809  10.809   6.482 -0.4295 -0.1449 -0.0890
    1DPPC   PO4 2726  18.046  11.272   6.413  0.1404  0.0602 -0.1126
    1DPPC   GL1 2727  18.153  11.422   6.051  0.1904  0.1993 -0.1610
    1DPPC   GL2 2728  18.526  11.419   5.817  0.2364 -0.1820  0.1528
    1DPPC   C1A 2729  18.058  11.532   5.645  0.0358  0.2539  0.1832
    1DPPC   C2A 2730  18.003  11.435   5.196  0.2897  0.1241 -0.1922
    1DPPC   C3A 2731  17.865  11.509   4.780 -0.1916  0.0480  0.1170
    1DPPC   C4A 2732  17.788  11.612   4.329  0.0318  0.1619 -0.0287
    1DPPC   C1B 2733  18.418  11.264   5.482  0.0394  0.2812 -0.0190
    1DPPC   C2B 2734  18.433  11.133   5.136  0.1498 -0.0742 -0.2127
    1DPPC   C3B 2735  18.178  11.058   4.754 -0.1482  0.2125 -0.2800
    1DPPC   C4B 2736  17.987  11.003   4.379  0.1984  0.2123  0.1741
    1DPPC   NC3 2737  15.456  10.351   7.436  0.0878  0.3205 -0.3276
    1DPPC   PO4 2738  15.193  10.418   7.038 -0.0108  0.3107 -0.1858
    1DPPC   GL1 2739  14.893  10.452   6.554  0.1429  0.3118 -0.1323
    1DPPC   GL2 2740  15.159  10.420   6.379 -0.1029  0.0756  0.1644
    1DPPC   C1A 2741  14.757  10.568   6.130 -0.0213  0.0098 -0.1203
    1DPPC   C2A 2742  14.517  10.479   5.717 -0.1093 -0.1780  0.0750
    1DPPC   C3A 2743  14.456  10.491   5.313  0.2096  0.0424 -0.2851
    1DPPC   C4A 2744  14.508  10.419   4.894 -0.0445  0.1642  0.1311
    1DPPC   C1B 2745  15.227  10.417   6.015  0.2809 -0.1828 -0.0075
    1DPPC   C2B 2746  15.023  10.443   5.661  0.1973 -0.1340 -0.2154
    1DPPC   C3B 2747  14.948  10.445   5.238 -0.0441  0.1855  0.0124
    1DPPC   C4B 2748  15.031  10.392   4.878 -0.2742  0.3470  0.3715
    1DPPC   NC3 2749  16.737  10.742   7.483  0.1231 -0.1350 -0.2107
    1DPPC   PO4 2750  16.777  10.529   6.998 -0.1280 -0.0331  0.1928
    1DPPC   GL1 2751  16.717  10.518   6.509 -0.2431 -0.1719 -0.1189
    1DPPC   GL2 2752  16.987  10.595   6.294  0.2854  0.3944  0.0816
    1DPPC   C1A 2753  16.482  10.580   6.106  0.0780  0.0170 -0.2026
    1DPPC   C2A 2754  16.312  10.649   5.745  0.1122  0.2163  0.1835
    1DPPC   C3A 2755  16.359  10.542   5.292 -0.1582  0.0261  0.2768
    1DPPC   C4A 2756  16.324  10.446   4.861 -0.1340  0.1609 -0.1947
    1DPPC   C1B 2757  16.944  10.524   5.901  0.0390  0.2465  0.2625
    1DPPC   C2B 2758  16.642  10.291   5.697 -0.1755 -0.1520 -0.1050
    1DPPC   C3B 2759  16.513  10.060   5.365 -0.1977  0.1602  0.0927
    1DPPC   C4B 2760  16.484   9.951   4.944 -0.2570  0.1467 -0.1923
    1DPPC   NC3 2761  11.383   6.059   7.163  0.0737  0.1109  0.1639
    1DPPC   PO4 2762  11.182   6.417   7.325  0.1873 -0.2799 -0.1429
    1DPPC   GL1 2763  11.417   6.519   6.911  0.0450 -0.0741  0.3143
    1DPPC   GL2 2764  11.328   6.335   6.733  0.0363 -0.2687 -0.0152
    1DPPC   C1A 2765  11.609   6.746   6.566  0.2340 -0.0805 -0.0721
    1DPPC   C2A 2766  11.684   6.578   6.138  0.0621 -0.0928  0.0839
    1DPPC   C3A 2767  11.822   6.467   5.691 -0.0022  0.0410  0.2684
    1DPPC   C4A 2768  11.585   6.703   5.273  0.1414 -0.1980  0.1079
    1DPPC   C1B 2769  11.415   6.179   6.315 -0.2756  0.2755 -0.1115
    1DPPC   C2B 2770  11.476   6.098   5.865 -0.1894 -0.2286 -0.2597
    1DPPC   C3B 2771  11.587   6.161   5.365 -0.1936  0.0385 -0.0983
    1DPPC   C4B 2772  11.557   6.156   4.984  0.1565  0.2737  0.0886
    1DPPC   NC3 2773  15.877  22.017   6.684  0.0279 -0.1191  0.3638
    1DPPC   PO4 2774  15.418  22.043   6.585  0.0877  0.2773 -0.1451
    1DPPC   GL1 2775  15.676  22.054   6.208 -0.1298 -0.2104  0.0738
    1DPPC   GL2 2776  15.835  21.880   6.188 -0.0401  0.0601  0.1267
    1DPPC   C1A 2777  15.771  22.365   5.926 -0.1789  0.0184  0.1056
    1DPPC   C2A 2778  15.766  22.303   5.526 -0.2391 -0.0617  0.2066
    1DPPC   C3A 2779  15.875  22.279   5.106 -0.0440  0.1382 -0.0587
    1DPPC   C4A 2780  16.145  22.199   4.784 -0.1411 -0.1694  0.3290
    1DPPC   C1B 2781  15.903  21.836   5.732 -0.1922  0.1714  0.0724
    1DPPC   C2B 2782  16.147  21.841   5.403 -0.2828 -0.1352 -0.0303
    1DPPC   C3B 2783  16.145  21.639   4.965 -0.1697 -0.0669 -0.0608
    1DPPC   C4B 2784  16.264  21.383   4.582 -0.1597 -0.1644  0.0841
    1DPPC   NC3 2785  13.845  19.638   6.587 -0.2667  0.3293  0.5284
    1DPPC   PO4 2786  13.692  20.058   6.577  0.0069  0.2515 -0.0210
    1DPPC   GL1 2787  14.022  20.034   6.302 -0.0893 -0.3566 -0.2081
    1DPPC   GL2 2788  14.211  19.675   6.199 -0.1247  0.1281  0.4509
    1DPPC   C1A 2789  14.222  20.187   6.048 -0.0653 -0.3237 -0.1205
    1DPPC   C2A 2790  14.404  20.167   5.652 -0.1599  0.3252  0.1734
    1DPPC   C3A 2791  14.478  20.165   5.172  0.3587 -0.3888 -0.1341
    1DPPC   C4A 2792  14.270  20.198   4.759  0.0080  0.0658  0.0379
    1DPPC   C1B 2793  14.233  19.696   5.788 -0.1318 -0.0222 -0.0912
    1DPPC   C2B 2794  14.394  19.740   5.373  0.0656 -0.0891  0.0955
    1DPPC   C3B 2795  14.344  19.672   4.895  0.1280  0.0898 -0.1060
    1DPPC   C4B 2796  14.446  19.836   4.487 -0.0025  0.4149  0.2039
    1DPPC   NC3 2797  11.435  17.028   6.726  0.0486  0.0866 -0.1974
    1DPPC   PO4 2798  11.795  17.135   6.465 -0.0495 -0.0514  0.1966
    1DPPC   GL1 2799  11.621  16.936   6.225  0.1524 -0.0199  0.0307
    1DPPC   GL2 2800  11.325  17.145   6.236 -0.1745  0.2719 -0.1485
    1DPPC   C1A 2801  11.761  16.674   5.897 -0.1567 -0.1401 -0.2093
    1DPPC   C2A 2802  11.641  16.710   5.513 -0.0432  0.3701 -0.2631
    1DPPC   C3A 2803  11.703  16.582   5.188 -0.0051  0.2604  0.0560
    1DPPC   C4A 2804  11.632  16.783   4.725 -0.0644 -0.3589  0.0582
    1DPPC   C1B 2805  11.249  16.936   5.855 -0.0776  0.1265  0.0144
    1DPPC   C2B 2806  11.164  16.875   5.464 -0.1953  0.1256 -0.5204
    1DPPC   C3B 2807  11.215  16.853   5.051  0.0352 -0.0718 -0.0807
    1DPPC   C4B 2808  11.117  16.840   4.634  0.0464 -0.2427  0.1012
    1DPPC   NC3 2809  20.157  14.056   6.815 -0.2193  0.1234 -0.2328
    1DPPC   PO4 2810  19.947  13.754   6.481 -0.0279 -0.0488 -0.1840
    1DPPC   GL1 2811  19.686  13.889   6.092  0.1814  0.0935 -0.0843
    1DPPC   GL2 2812  19.362  13.952   6.007 -0.0715 -0.2210 -0.0460
    1DPPC   C1A 2813  19.761  13.812   5.633  0.0958  0.0741  0.3639
    1DPPC   C2A 2814  19.804  13.737   5.129 -0.0867  0.1812 -0.0213
    1DPPC   C3A 2815  19.636  13.659   4.777 -0.0709 -0.0121  0.1490
    1DPPC   C4A 2816  19.556  13.375   4.384  0.1280  0.1641 -0.1758
    1DPPC   C1B 2817  19.222  13.908   5.580 -0.1010  0.0327 -0.1213
    1DPPC   C2B 2818  19.192  13.673   5.226 -0.1181  0.0248 -0.0587
    1DPPC   C3B 2819  19.079  13.454   4.846  0.1072 -0.1017  0.0073
    1DPPC   C4B 2820  19.068  13.280   4.454  0.0268 -0.0447 -0.3104
    1DPPC   NC3 2821  19.406   7.502   6.769 -0.1258  0.0607  0.0717
    1DPPC   PO4 2822  19.595   7.508   6.366 -0.0580 -0.3490  0.2992
    1DPPC   GL1 2823  19.535   7.315   6.010  0.0563 -0.0557  0.1151
    1DPPC   GL2 2824  19.784   7.455   5.862  0.1450  0.1719 -0.1828
    1DPPC   C1A 2825  19.346   7.209   5.518 -0.0620 -0.0866  0.1285
    1DPPC   C2A 2826  19.270   7.082   5.032  0.1342 -0.0846  0.0474
    1DPPC   C3A 2827  19.091   6.678   4.877  0.1854 -0.2191 -0.3063
    1DPPC   C4A 2828  19.079   6.399   4.593  0.1831  0.1733 -0.0207
    1DPPC   C1B 2829  19.542   7.712   5.640 -0.0358  0.1926 -0.1789
    1DPPC   C2B 2830  19.594   7.835   5.060 -0.1911 -0.0882  0.0685
    1DPPC   C3B 2831  19.699   8.048   4.682 -0.0361 -0.2393  0.1976
    1DPPC   C4B 2832  19.540   8.044   4.344  0.0487 -0.0951  0.2679
    1DPPC   NC3 2833  18.385  22.607   6.947 -0.0895  0.0230  0.0447
    1DPPC   PO4 2834  18.798  22.504   6.988  0.1894 -0.0772  0.2235
    1DPPC   GL1 2835  18.855  22.595   6.570  0.0606  0.1583 -0.2351
    1DPPC   GL2 2836  18.812  22.937   6.549  0.3442 -0.0801  0.0705
    1DPPC   C1A 2837  18.566  22.601   6.219  0.1258 -0.1756  0.1086
    1DPPC   C2A 2838  18.574  22.678   5.783  0.0874 -0.1345  0.0099
    1DPPC   C3A 2839  18.658  22.756   5.329 -0.2401 -0.0151  0.2091
    1DPPC   C4A 2840  18.867  23.044   5.173 -0.1497  0.0617 -0.0551
    1DPPC   C1B 2841  18.863  22.994   6.127 -0.0944  0.1898  0.1782
    1DPPC   C2B 2842  18.919  23.032   5.691 -0.0397 -0.1612  0.2030
    1DPPC   C3B 2843  19.312  22.991   5.471 -0.3168 -0.2264  0.0399
    1DPPC   C4B 2844  19.690  22.801   5.719  0.0393 -0.2174 -0.2003
    1DPPC   NC3 2845  13.960   9.308   6.776  0.0508  0.1175  0.0225
    1DPPC   PO4 2846  14.305   9.218   6.777  0.1264 -0.1586  0.1046
    1DPPC   GL1 2847  14.078   8.975   6.421  0.1328  0.1647  0.0780
    1DPPC   GL2 2848  13.752   8.852   6.465  0.2550  0.3285  0.3331
    1DPPC   C1A 2849  14.087   9.103   6.028  0.0438  0.1393  0.0506
    1DPPC   C2A 2850  14.036   9.058   5.581 -0.0799  0.0456  0.0811
    1DPPC   C3A 2851  14.033   9.202   5.214 -0.0642 -0.0868 -0.0097
    1DPPC   C4A 2852  13.669   9.269   4.933  0.2891  0.0457  0.0145
    1DPPC   C1B 2853  13.696   8.714   6.012  0.1028  0.1033  0.2426
    1DPPC   C2B 2854  13.814   8.577   5.657 -0.0299 -0.0184 -0.1203
    1DPPC   C3B 2855  13.918   8.694   5.271  0.2838 -0.0230  0.1973
    1DPPC   C4B 2856  13.691   8.644   4.899  0.0372 -0.0961  0.1664
    1DPPC   NC3 2857  12.205  19.780   6.506 -0.3302 -0.0573  0.2438
    1DPPC   PO4 2858  12.562  20.034   6.644  0.2939  0.3869 -0.0003
    1DPPC   GL1 2859  12.566  19.946   6.229  0.0929 -0.0550  0.3216
    1DPPC   GL2 2860  12.853  19.920   6.172  0.0778  0.0540 -0.3785
    1DPPC   C1A 2861  12.508  20.012   5.732  0.1110  0.1814  0.3689
    1DPPC   C2A 2862  12.597  19.785   5.336 -0.0096 -0.2186  0.4095
    1DPPC   C3A 2863  12.564  19.778   4.975 -0.1694  0.5296  0.1927
    1DPPC   C4A 2864  12.212  19.530   4.788  0.2222 -0.1704 -0.2823
    1DPPC   C1B 2865  12.713  19.533   5.832  0.3162  0.0166 -0.1575
    1DPPC   C2B 2866  12.899  19.445   5.488  0.0039  0.0011  0.1400
    1DPPC   C3B 2867  12.803  19.361   5.084 -0.0535 -0.3807 -0.0456
    1DPPC   C4B 2868  12.780  19.098   4.749 -0.3073 -0.1634  0.1186
    1DPPC   NC3 2869   6.706  16.817   6.088  0.0414  0.2622 -0.5103
    1DPPC   PO4 2870   6.460  16.558   5.940 -0.0253 -0.0160 -0.0082
    1DPPC   GL1 2871   6.492  16.236   5.621  0.3666  0.0476 -0.1737
    1DPPC   GL2 2872   6.401  15.882   5.708 -0.1097  0.1667  0.0775
    1DPPC   C1A 2873   6.491  16.251   5.167 -0.1457  0.1829 -0.1818
    1DPPC   C2A 2874   6.288  16.171   4.832 -0.0622 -0.0310 -0.1076
    1DPPC   C3A 2875   5.857  16.016   4.812 -0.0068 -0.2354  0.0051
    1DPPC   C4A 2876   5.775  15.863   4.435 -0.0527 -0.2201 -0.0389
    1DPPC   C1B 2877   6.796  15.867   5.510 -0.0022  0.1124 -0.0602
    1DPPC   C2B 2878   6.870  15.855   5.106  0.3646  0.1032 -0.1765
    1DPPC   C3B 2879   7.174  15.996   4.847  0.0569  0.5127 -0.4340
    1DPPC   C4B 2880   7.562  16.225   4.873 -0.1357  0.0835  0.2767
    1DPPC   NC3 2881  19.508  14.835   6.482  0.0557  0.0483 -0.0824
    1DPPC   PO4 2882  19.931  14.829   6.293 -0.0466 -0.1575 -0.1704
    1DPPC   GL1 2883  20.214  15.081   5.997 -0.1417  0.1417 -0.3143
    1DPPC   GL2 2884  20.552  15.085   5.777 -0.0761  0.0003  0.1502
    1DPPC   C1A 2885  20.141  15.430   5.778 -0.0336  0.0347  0.1193
    1DPPC   C2A 2886  20.016  15.489   5.390  0.0316 -0.0079 -0.2303
    1DPPC   C3A 2887  20.062  15.564   4.885 -0.1201  0.2990  0.2519
    1DPPC   C4A 2888  19.891  15.571   4.447  0.0086 -0.1255  0.1941
    1DPPC   C1B 2889  20.364  15.061   5.375 -0.0472 -0.2073 -0.0729
    1DPPC   C2B 2890  20.153  15.046   4.975 -0.0835 -0.2416  0.0014
    1DPPC   C3B 2891  20.242  14.982   4.534 -0.1735  0.0585  0.1462
    1DPPC   C4B 2892  20.555  14.879   4.286 -0.1079  0.1199  0.0316
    1DPPC   NC3 2893  14.215  13.532   7.036  0.0300 -0.2097  0.2765
    1DPPC   PO4 2894  14.244  13.119   6.921 -0.0200 -0.4205  0.2005
    1DPPC   GL1 2895  14.239  13.228   6.482 -0.2837  0.2730  0.2427
    1DPPC   GL2 2896  14.191  13.548   6.531 -0.2525  0.2050  0.2731
    1DPPC   C1A 2897  14.398  13.202   6.042  0.0952 -0.0999  0.0227
    1DPPC   C2A 2898  14.602  13.407   5.753 -0.0795  0.0170  0.2221
    1DPPC   C3A 2899  14.816  13.380   5.302  0.2095  0.0874 -0.1098
    1DPPC   C4A 2900  14.875  13.332   4.943  0.0232 -0.0255 -0.0082
    1DPPC   C1B 2901  14.135  13.618   6.103 -0.0767 -0.1532 -0.1471
    1DPPC   C2B 2902  14.064  13.537   5.754 -0.2441 -0.2516  0.1153
    1DPPC   C3B 2903  14.200  13.344   5.401  0.0828  0.0997 -0.0733
    1DPPC   C4B 2904  14.099  13.348   4.997  0.0850  0.0667 -0.1068
    1DPPC   NC3 2905  12.086   7.392   7.791 -0.1197 -0.0101  0.0821
    1DPPC   PO4 2906  11.967   7.536   7.342  0.0618  0.1831 -0.0301
    1DPPC   GL1 2907  11.856   7.342   7.071 -0.3093 -0.1342  0.0452
    1DPPC   GL2 2908  12.155   7.563   6.850  0.1457 -0.2707  0.0695
    1DPPC   C1A 2909  11.835   7.168   6.671 -0.0268  0.0941 -0.0468
    1DPPC   C2A 2910  11.772   7.136   6.212  0.3198  0.0718  0.2065
    1DPPC   C3A 2911  11.798   7.327   5.770 -0.2033  0.1644  0.2291
    1DPPC   C4A 2912  11.612   7.252   5.329  0.0377  0.1018 -0.1438
    1DPPC   C1B 2913  11.915   7.590   6.448  0.2591 -0.1110  0.0826
    1DPPC   C2B 2914  11.773   7.653   6.079  0.1365  0.1927  0.1162
    1DPPC   C3B 2915  11.378   7.564   5.650 -0.0837  0.1451 -0.0814
    1DPPC   C4B 2916  11.102   7.580   5.269 -0.1545  0.0162  0.0611
    1DPPC   NC3 2917  19.654  18.516   6.747  0.0201 -0.1166 -0.2304
    1DPPC   PO4 2918  19.286  18.782   6.896  0.0798 -0.1018  0.0847
    1DPPC   GL1 2919  19.060  18.816   6.518  0.0579  0.2830  0.3452
    1DPPC   GL2 2920  18.849  19.110   6.522 -0.0709  0.0896  0.0823
    1DPPC   C1A 2921  19.168  18.662   6.041  0.0173 -0.3628 -0.2812
    1DPPC   C2A 2922  19.189  18.620   5.627 -0.4387  0.0577  0.1607
    1DPPC   C3A 2923  19.010  18.763   5.379  0.0237  0.2775  0.3065
    1DPPC   C4A 2924  19.097  19.169   4.952 -0.0621  0.1104 -0.0058
    1DPPC   C1B 2925  18.923  19.100   6.097 -0.2208 -0.0599  0.0269
    1DPPC   C2B 2926  18.979  19.129   5.691  0.1781  0.0961  0.1229
    1DPPC   C3B 2927  18.817  19.230   5.336  0.1676 -0.0876 -0.2669
    1DPPC   C4B 2928  18.834  19.613   5.181 -0.0603 -0.4598 -0.1027
    1DPPC   NC3 2929  18.214  19.333   7.033 -0.3518  0.0613  0.0759
    1DPPC   PO4 2930  17.793  19.350   7.247 -0.0151 -0.1268 -0.1857
    1DPPC   GL1 2931  17.784  19.501   6.772  0.2452  0.0912 -0.1096
    1DPPC   GL2 2932  17.451  19.476   6.669  0.0091 -0.1519  0.2384
    1DPPC   C1A 2933  17.860  19.586   6.341 -0.0359 -0.2329  0.0056
    1DPPC   C2A 2934  17.759  19.489   5.947  0.1075 -0.2506  0.5027
    1DPPC   C3A 2935  17.715  19.562   5.568  0.1921 -0.0521 -0.0427
    1DPPC   C4A 2936  17.826  19.729   5.300  0.3306 -0.1333  0.0891
    1DPPC   C1B 2937  17.336  19.310   6.269  0.1588  0.3119 -0.0014
    1DPPC   C2B 2938  17.332  19.137   5.857 -0.1078 -0.0678 -0.1277
    1DPPC   C3B 2939  17.392  19.216   5.428 -0.0991 -0.0284 -0.1628
    1DPPC   C4B 2940  17.358  19.103   5.053 -0.1241  0.1007  0.1297
    1DPPC   NC3 2941  15.190  10.890   6.702 -0.1062 -0.0431 -0.0226
    1DPPC   PO4 2942  14.751  10.974   6.705 -0.0255  0.1149  0.1473
    1DPPC   GL1 2943  14.931  11.015   6.303 -0.1112 -0.0974  0.3195
    1DPPC   GL2 2944  15.096  11.252   6.325 -0.2661 -0.0534 -0.3175
    1DPPC   C1A 2945  14.870  10.927   5.789  0.4429  0.3234  0.1947
    1DPPC   C2A 2946  14.805  10.873   5.393  0.0106  0.1637  0.1274
    1DPPC   C3A 2947  14.818  10.913   5.033  0.0782 -0.3453  0.0864
    1DPPC   C4A 2948  14.573  10.964   4.686 -0.2255 -0.0982 -0.0806
    1DPPC   C1B 2949  15.179  11.406   5.952  0.1539  0.1592  0.1102
    1DPPC   C2B 2950  15.287  11.260   5.495  0.0093  0.1129  0.2013
    1DPPC   C3B 2951  15.235  11.303   5.029 -0.1608 -0.2106 -0.1669
    1DPPC   C4B 2952  14.958  11.315   4.726  0.0486 -0.0438  0.0137
    1DPPC   NC3 2953  25.627   9.062   6.652 -0.0713 -0.0986  0.1998
    1DPPC   PO4 2954  25.553   8.842   6.264  0.0008  0.1010 -0.3332
    1DPPC   GL1 2955  25.580   8.862   5.955 -0.0775 -0.1039 -0.1687
    1DPPC   GL2 2956  25.752   8.680   5.750 -0.1861 -0.1400 -0.1199
    1DPPC   C1A 2957  25.247   8.852   5.668  0.0548  0.2766  0.3445
    1DPPC   C2A 2958  25.045   9.038   5.263  0.0335 -0.1922  0.0616
    1DPPC   C3A 2959  24.841   9.169   4.863 -0.1113 -0.2461  0.0911
    1DPPC   C4A 2960  24.704   9.647   4.709  0.0025  0.1081 -0.4960
    1DPPC   C1B 2961  25.812   8.670   5.276  0.1313  0.2713 -0.2068
    1DPPC   C2B 2962  25.651   8.445   4.896 -0.4137  0.1146  0.2216
    1DPPC   C3B 2963  25.446   8.101   4.832 -0.0494  0.1083 -0.0794
    1DPPC   C4B 2964  25.326   7.664   4.722  0.0607 -0.1539  0.0476
    1DPPC   NC3 2965  10.830   9.121   7.788 -0.0765 -0.1638 -0.3015
    1DPPC   PO4 2966  10.688   9.172   7.335  0.0805 -0.2165  0.0677
    1DPPC   GL1 2967  10.876   9.203   6.924  0.2619  0.2112  0.2053
    1DPPC   GL2 2968  10.648   9.089   6.795 -0.0931 -0.1671 -0.3595
    1DPPC   C1A 2969  11.075   9.076   6.548 -0.0518  0.1551 -0.3558
    1DPPC   C2A 2970  11.112   8.890   6.182 -0.1704 -0.0812  0.1045
    1DPPC   C3A 2971  11.050   8.927   5.770  0.0259 -0.0285  0.0806
    1DPPC   C4A 2972  11.373   9.060   5.504  0.0241  0.0704  0.0754
    1DPPC   C1B 2973  10.392   9.117   6.475  0.2429 -0.1389  0.0767
    1DPPC   C2B 2974  10.233   9.306   6.217  0.2041  0.1675 -0.1334
    1DPPC   C3B 2975  10.206   9.395   5.811  0.2987  0.0921 -0.0504
    1DPPC   C4B 2976  10.203   9.110   5.478  0.3012 -0.2573  0.0858
    1DPPC   NC3 2977  17.786   9.419   6.463  0.0007  0.1240 -0.0210
    1DPPC   PO4 2978  17.269   9.401   6.542 -0.0399  0.0430  0.3407
    1DPPC   GL1 2979  17.011   9.603   6.195  0.3111 -0.2381  0.1530
    1DPPC   GL2 2980  17.272   9.768   6.136  0.1664  0.0233 -0.0694
    1DPPC   C1A 2981  16.824   9.688   5.817 -0.1760 -0.0664  0.1657
    1DPPC   C2A 2982  16.772   9.594   5.415  0.1125  0.2471  0.0435
    1DPPC   C3A 2983  16.772   9.568   5.062 -0.3335 -0.0997  0.0581
    1DPPC   C4A 2984  16.828   9.738   4.574  0.0687  0.1954 -0.0691
    1DPPC   C1B 2985  17.313   9.663   5.728  0.0173  0.1168  0.2164
    1DPPC   C2B 2986  17.238   9.689   5.297 -0.0557 -0.0601  0.1691
    1DPPC   C3B 2987  17.225   9.649   4.863 -0.1431 -0.1894 -0.1853
    1DPPC   C4B 2988  17.264   9.443   4.507  0.1121  0.1610  0.0838
    1DPPC   NC3 2989  29.617  19.362   6.273  0.2233 -0.1124  0.2312
    1DPPC   PO4 2990  30.041  19.326   6.087 -0.0644 -0.0287 -0.1674
    1DPPC   GL1 2991  30.234  19.517   5.731  0.0747  0.3895 -0.2843
    1DPPC   GL2 2992  30.491  19.373   5.560 -0.2134  0.4665  0.0105
    1DPPC   C1A 2993  30.090  19.720   5.470  0.0687 -0.1493  0.0124
    1DPPC   C2A 2994  30.090  20.049   5.119 -0.0543 -0.1171  0.0203
    1DPPC   C3A 2995  30.240  20.443   5.073 -0.2688 -0.0361 -0.1167
    1DPPC   C4A 2996  30.262  20.769   4.699 -0.2150 -0.1945  0.1636
    1DPPC   C1B 2997  30.259  19.363   5.187 -0.0908 -0.2853 -0.0363
    1DPPC   C2B 2998  29.971  19.587   4.925  0.1614 -0.0554 -0.0675
    1DPPC   C3B 2999  29.858  19.883   4.612 -0.0457 -0.3241  0.2022
    1DPPC   C4B 3000  29.670  19.853   4.187  0.1290 -0.1334  0.0336
    1DPPC   NC3 3001  19.459   4.650   6.222 -0.0106  0.1138  0.2101
    1DPPC   PO4 3002  19.151   4.466   6.470 -0.0233  0.1270 -0.4713
    1DPPC   GL1 3003  18.981   4.375   6.051  0.0858 -0.0980  0.4131
    1DPPC   GL2 3004  18.744   4.266   5.957  0.0667  0.0356 -0.3398
    1DPPC   C1A 3005  18.960   4.336   5.532  0.1330 -0.1928  0.0083
    1DPPC   C2A 3006  19.169   4.243   5.130  0.1591  0.0242 -0.1482
    1DPPC   C3A 3007  19.397   4.367   4.782 -0.1064 -0.2486 -0.1406
    1DPPC   C4A 3008  19.116   4.321   4.337  0.1436 -0.2698  0.2135
    1DPPC   C1B 3009  18.711   3.969   5.638 -0.2121  0.0515  0.1590
    1DPPC   C2B 3010  18.778   3.939   5.190 -0.0981 -0.1234 -0.3349
    1DPPC   C3B 3011  18.856   3.992   4.700  0.2102  0.3141  0.0347
    1DPPC   C4B 3012  19.096   3.665   4.458 -0.0288  0.0240  0.0437
    1DPPC   NC3 3013  16.727  22.550   6.850  0.2340  0.1009  0.4161
    1DPPC   PO4 3014  16.273  22.765   7.008 -0.0476 -0.1830  0.1800
    1DPPC   GL1 3015  16.354  22.747   6.474 -0.1213  0.3214  0.0050
    1DPPC   GL2 3016  16.199  22.879   6.281  0.2133 -0.1029 -0.1057
    1DPPC   C1A 3017  16.708  22.464   6.187  0.2148 -0.2060  0.0148
    1DPPC   C2A 3018  17.041  22.322   5.930 -0.1579  0.1311  0.3523
    1DPPC   C3A 3019  17.231  22.329   5.523 -0.1256 -0.1263 -0.0285
    1DPPC   C4A 3020  17.322  22.412   5.047 -0.1527 -0.1872  0.2700
    1DPPC   C1B 3021  16.033  22.765   5.844  0.1762  0.1110 -0.3551
    1DPPC   C2B 3022  16.108  22.610   5.410 -0.0695  0.0083  0.2166
    1DPPC   C3B 3023  16.336  22.590   5.023  0.0921  0.1291  0.2988
    1DPPC   C4B 3024  16.406  22.598   4.532 -0.1624  0.0443  0.0264
    1DPPC   NC3 3025  18.528  14.037   6.393  0.1562  0.2467 -0.4269
    1DPPC   PO4 3026  18.308  14.318   6.480  0.1235 -0.2223  0.3384
    1DPPC   GL1 3027  18.012  14.100   6.135 -0.1350 -0.0237 -0.1678
    1DPPC   GL2 3028  18.238  14.202   5.879 -0.0325 -0.0353  0.0045
    1DPPC   C1A 3029  17.732  14.046   5.774  0.1753  0.0332 -0.1174
    1DPPC   C2A 3030  17.712  13.933   5.381  0.1241  0.0813 -0.3046
    1DPPC   C3A 3031  17.694  13.964   4.886  0.3897  0.0752 -0.0416
    1DPPC   C4A 3032  17.496  13.954   4.522  0.5059  0.3254  0.1461
    1DPPC   C1B 3033  18.493  14.292   5.705  0.3400  0.2070  0.2392
    1DPPC   C2B 3034  18.424  14.337   5.211 -0.0064 -0.1916  0.1306
    1DPPC   C3B 3035  18.558  14.342   4.846 -0.1745 -0.0528  0.2890
    1DPPC   C4B 3036  18.457  14.218   4.379 -0.0416 -0.0372 -0.2915
    1DPPC   NC3 3037  27.757   2.871   6.840 -0.1200 -0.3305  0.1776
    1DPPC   PO4 3038  27.360   2.852   6.633  0.0848  0.1074  0.1868
    1DPPC   GL1 3039  27.656   3.191   6.383  0.0140  0.2526 -0.2208
    1DPPC   GL2 3040  27.529   3.153   6.060  0.0779  0.0415 -0.0282
    1DPPC   C1A 3041  28.156   3.291   6.216  0.0850 -0.1732 -0.2535
    1DPPC   C2A 3042  28.479   3.501   5.963 -0.1954  0.2955 -0.1898
    1DPPC   C3A 3043  28.809   3.703   5.777 -0.0220  0.0164 -0.0873
    1DPPC   C4A 3044  28.883   3.808   5.331  0.2262 -0.3433  0.3916
    1DPPC   C1B 3045  27.429   3.222   5.620  0.1605  0.0662  0.2082
    1DPPC   C2B 3046  27.464   3.094   5.169 -0.0593 -0.0044 -0.0132
    1DPPC   C3B 3047  27.394   3.152   4.680  0.0013  0.2178  0.1106
    1DPPC   C4B 3048  27.150   3.119   4.309  0.0000  0.0616  0.0423
    1DPPC   NC3 3049  16.729  13.455   6.887 -0.0668 -0.1228  0.3363
    1DPPC   PO4 3050  16.536  13.823   6.573 -0.2436 -0.1877 -0.0929
    1DPPC   GL1 3051  16.430  13.625   6.130  0.0379  0.4162  0.0902
    1DPPC   GL2 3052  16.159  13.828   5.950  0.1620 -0.0531 -0.1507
    1DPPC   C1A 3053  16.409  13.388   5.772 -0.1090 -0.2452 -0.1591
    1DPPC   C2A 3054  16.375  13.341   5.356 -0.0704  0.2490  0.2099
    1DPPC   C3A 3055  16.321  13.282   4.934  0.0135 -0.2032  0.2921
    1DPPC   C4A 3056  16.224  13.331   4.499 -0.3968 -0.1042  0.0449
    1DPPC   C1B 3057  16.209  13.863   5.533 -0.4179 -0.0624  0.1827
    1DPPC   C2B 3058  16.220  13.858   5.199  0.0506  0.0256 -0.0693
    1DPPC   C3B 3059  16.147  13.804   4.716  0.0232  0.1049  0.0388
    1DPPC   C4B 3060  16.134  14.110   4.404  0.1657  0.0561  0.0933
    1DPPC   NC3 3061  16.084   5.763   6.923  0.1469  0.1864 -0.0833
    1DPPC   PO4 3062  15.854   5.587   6.634  0.1847  0.0124  0.2017
    1DPPC   GL1 3063  15.760   5.594   6.247 -0.0154  0.0881  0.4666
    1DPPC   GL2 3064  15.519   5.326   6.187 -0.2050  0.0667 -0.1760
    1DPPC   C1A 3065  15.664   5.828   5.827  0.0467 -0.1750 -0.2028
    1DPPC   C2A 3066  15.521   6.212   5.630  0.1619  0.1441  0.0538
    1DPPC   C3A 3067  15.393   6.569   5.373 -0.1733  0.4146  0.1556
    1DPPC   C4A 3068  15.600   6.899   5.073 -0.1978  0.2062  0.2183
    1DPPC   C1B 3069  15.234   5.563   6.062 -0.1620 -0.1809 -0.0165
    1DPPC   C2B 3070  14.986   5.749   5.746  0.0209  0.1179  0.1218
    1DPPC   C3B 3071  14.906   5.962   5.430 -0.2112 -0.0319 -0.0756
    1DPPC   C4B 3072  14.949   6.325   5.272  0.2157 -0.0984  0.1479
    1DPPC   NC3 3073  14.333  21.893   6.851  0.0336 -0.1009  0.2602
    1DPPC   PO4 3074  14.121  21.726   6.518  0.0246  0.0064  0.1798
    1DPPC   GL1 3075  14.073  21.713   6.183  0.0232  0.0604  0.1384
    1DPPC   GL2 3076  14.340  21.606   5.994  0.1344 -0.3415  0.1751
    1DPPC   C1A 3077  13.960  21.790   5.691 -0.1035  0.1267 -0.0194
    1DPPC   C2A 3078  14.096  21.476   5.357  0.0434 -0.0111 -0.1917
    1DPPC   C3A 3079  14.131  21.499   4.930  0.1227 -0.0911  0.3252
    1DPPC   C4A 3080  14.416  21.498   4.628  0.0243  0.2184  0.0813
    1DPPC   C1B 3081  14.470  21.672   5.594 -0.2344  0.0264  0.2593
    1DPPC   C2B 3082  14.361  21.915   5.272  0.0769  0.2190 -0.1530
    1DPPC   C3B 3083  14.409  21.988   4.854 -0.0120  0.0538  0.3173
    1DPPC   C4B 3084  14.625  21.986   4.449 -0.5041  0.1654  0.0520
    1DPPC   NC3 3085  21.909  14.807   6.447  0.1390 -0.2477 -0.1365
    1DPPC   PO4 3086  21.560  15.179   6.514  0.0234  0.0862 -0.1225
    1DPPC   GL1 3087  21.596  15.274   6.104 -0.0214  0.0603 -0.2263
    1DPPC   GL2 3088  21.712  14.983   5.965 -0.0587 -0.0868  0.1316
    1DPPC   C1A 3089  21.427  15.400   5.706  0.0373  0.0339 -0.2001
    1DPPC   C2A 3090  21.404  15.542   5.272 -0.1307 -0.0272 -0.3739
    1DPPC   C3A 3091  21.162  15.796   4.972 -0.0425  0.3703  0.0636
    1DPPC   C4A 3092  20.916  15.760   4.610  0.1892  0.0137  0.4343
    1DPPC   C1B 3093  21.808  15.060   5.645  0.1394  0.0579  0.1342
    1DPPC   C2B 3094  21.816  15.130   5.319  0.0794 -0.0236 -0.1053
    1DPPC   C3B 3095  21.989  15.050   4.859  0.0920 -0.2183 -0.2710
    1DPPC   C4B 3096  22.133  14.817   4.588 -0.1111  0.0494 -0.0218
    1DPPC   NC3 3097  15.790  17.606   6.794  0.1583  0.2063  0.3162
    1DPPC   PO4 3098  16.063  17.902   6.795 -0.0981  0.2459  0.3121
    1DPPC   GL1 3099  15.838  17.978   6.404  0.0893  0.0004 -0.0652
    1DPPC   GL2 3100  15.575  17.654   6.287 -0.4181 -0.1575 -0.2377
    1DPPC   C1A 3101  15.886  18.090   6.049  0.0591 -0.0922 -0.0280
    1DPPC   C2A 3102  15.930  18.093   5.600 -0.1087 -0.1505 -0.0179
    1DPPC   C3A 3103  15.965  18.211   5.231 -0.0005  0.2326  0.0775
    1DPPC   C4A 3104  15.748  18.274   4.820  0.0370 -0.0157  0.1102
    1DPPC   C1B 3105  15.782  17.666   5.856  0.0285 -0.1063 -0.1658
    1DPPC   C2B 3106  15.767  17.648   5.405  0.2616  0.3488 -0.0102
    1DPPC   C3B 3107  15.852  17.788   4.996 -0.0726  0.0995  0.0470
    1DPPC   C4B 3108  15.827  17.839   4.547 -0.1161 -0.0479 -0.1840
    1DPPC   NC3 3109  11.280   8.127   7.033 -0.1340 -0.0946  0.1659
    1DPPC   PO4 3110  11.045   8.362   7.311 -0.2279 -0.1580 -0.1341
    1DPPC   GL1 3111  11.022   8.616   6.927 -0.0417 -0.3599 -0.2173
    1DPPC   GL2 3112  10.750   8.646   6.656 -0.1421 -0.0912 -0.0966
    1DPPC   C1A 3113  11.371   8.671   6.663 -0.1106  0.0754 -0.0737
    1DPPC   C2A 3114  11.552   8.464   6.428 -0.0529  0.2109 -0.0253
    1DPPC   C3A 3115  11.526   8.549   5.984  0.0903  0.0829  0.2267
    1DPPC   C4A 3116  11.440   8.523   5.556  0.2989 -0.1090 -0.3856
    1DPPC   C1B 3117  10.656   8.760   6.316  0.0680 -0.0932 -0.4131
    1DPPC   C2B 3118  10.591   8.987   5.910 -0.1217 -0.0258 -0.3072
    1DPPC   C3B 3119  10.668   8.895   5.483 -0.1647 -0.0532 -0.1841
    1DPPC   C4B 3120  10.981   8.729   5.336  0.0211 -0.0015 -0.3353
    1DPPC   NC3 3121  14.548  21.492   6.485  0.2915  0.3593 -0.3562
    1DPPC   PO4 3122  14.670  21.881   6.203  0.1581  0.1024  0.1467
    1DPPC   GL1 3123  14.857  21.984   5.748  0.2544  0.0167 -0.3572
    1DPPC   GL2 3124  14.771  22.352   5.778 -0.1687 -0.0962 -0.0719
    1DPPC   C1A 3125  14.974  22.045   5.350 -0.0522  0.0927  0.0841
    1DPPC   C2A 3126  15.168  21.878   4.921  0.0342 -0.0507 -0.0369
    1DPPC   C3A 3127  15.399  21.638   4.609 -0.2093  0.1978 -0.0112
    1DPPC   C4A 3128  15.690  21.478   4.298  0.0442  0.0636 -0.1562
    1DPPC   C1B 3129  14.671  22.392   5.409 -0.1172 -0.0247 -0.1629
    1DPPC   C2B 3130  14.610  22.394   5.021  0.0971 -0.1682 -0.0498
    1DPPC   C3B 3131  14.916  22.291   4.724  0.0802  0.0784  0.0608
    1DPPC   C4B 3132  15.258  22.128   4.496  0.1518  0.0498 -0.1140
    1DPPC   NC3 3133  16.333  11.381   7.069  0.0620  0.3199 -0.2048
    1DPPC   PO4 3134  16.636  11.312   6.678  0.1317  0.0082  0.0977
    1DPPC   GL1 3135  16.705  11.589   6.331  0.2545 -0.1676 -0.0252
    1DPPC   GL2 3136  16.941  11.825   6.509  0.0426 -0.1000  0.0042
    1DPPC   C1A 3137  16.634  11.622   5.870 -0.0724  0.0743  0.0279
    1DPPC   C2A 3138  16.531  11.516   5.509 -0.1175  0.0814 -0.0727
    1DPPC   C3A 3139  16.587  11.356   5.114  0.6166 -0.2291  0.0369
    1DPPC   C4A 3140  16.522  11.312   4.738 -0.1077  0.1470  0.4177
    1DPPC   C1B 3141  16.960  11.952   6.002  0.0535 -0.0105  0.2093
    1DPPC   C2B 3142  16.947  11.779   5.565 -0.1763 -0.0203 -0.1286
    1DPPC   C3B 3143  16.996  11.743   5.168  0.1489  0.0722 -0.1720
    1DPPC   C4B 3144  16.875  11.692   4.808  0.1409  0.1288  0.0461
    1DPPC   NC3 3145  11.503  18.640   6.936  0.0211 -0.0502 -0.1212
    1DPPC   PO4 3146  11.653  18.932   6.532  0.0547 -0.1043 -0.0904
    1DPPC   GL1 3147  11.800  19.082   6.230 -0.1491  0.2848 -0.0101
    1DPPC   GL2 3148  12.126  19.036   6.196  0.0107 -0.1460 -0.1138
    1DPPC   C1A 3149  11.704  19.095   5.828 -0.2518  0.0835  0.1808
    1DPPC   C2A 3150  11.665  18.876   5.498  0.0380  0.0372 -0.0936
    1DPPC   C3A 3151  11.466  18.741   5.076  0.0542 -0.1905  0.1324
    1DPPC   C4A 3152  11.417  19.058   4.796  0.0506 -0.1430 -0.0256
    1DPPC   C1B 3153  12.169  18.802   5.754  0.1989 -0.1722  0.0645
    1DPPC   C2B 3154  12.070  18.725   5.244 -0.0771  0.0324 -0.0095
    1DPPC   C3B 3155  11.912  18.658   4.820 -0.2181  0.0146 -0.5024
    1DPPC   C4B 3156  11.543  18.878   4.382 -0.0827 -0.0463  0.0730
    1DPPC   NC3 3157   1.620   3.889   6.589 -0.1576  0.0918 -0.1325
    1DPPC   PO4 3158   2.053   4.013   6.705  0.0583 -0.0657 -0.0198
    1DPPC   GL1 3159   2.029   3.749   6.328 -0.3095  0.1220  0.1616
    1DPPC   GL2 3160   1.802   3.791   6.132 -0.1501  0.0019 -0.0912
    1DPPC   C1A 3161   2.127   3.568   5.807 -0.1704 -0.0578 -0.2037
    1DPPC   C2A 3162   2.255   3.604   5.335 -0.0166 -0.2302  0.0622
    1DPPC   C3A 3163   2.284   3.915   4.960 -0.0377 -0.3350 -0.0081
    1DPPC   C4A 3164   2.154   4.326   4.809  0.3157  0.3972  0.2694
    1DPPC   C1B 3165   1.510   3.793   5.800  0.0307 -0.4365 -0.2765
    1DPPC   C2B 3166   1.326   3.910   5.430  0.0774 -0.1205 -0.0509
    1DPPC   C3B 3167   1.532   4.366   5.211 -0.0763  0.5682 -0.0049
    1DPPC   C4B 3168   1.339   4.609   4.871  0.2983  0.1172 -0.1873
    1DPPC   NC3 3169   7.222  17.544   5.860  0.1857 -0.1868  0.0030
    1DPPC   PO4 3170   7.221  17.927   5.971 -0.3728 -0.3262  0.1695
    1DPPC   GL1 3171   7.307  17.941   5.527  0.1473 -0.1231  0.1667
    1DPPC   GL2 3172   7.097  17.911   5.391  0.2816 -0.1384 -0.1925
    1DPPC   C1A 3173   7.627  18.006   5.164 -0.2139  0.2603  0.1893
    1DPPC   C2A 3174   7.869  17.843   4.810  0.2974 -0.1356  0.0189
    1DPPC   C3A 3175   8.066  17.639   4.521 -0.0391  0.0286 -0.2094
    1DPPC   C4A 3176   8.279  17.342   4.449  0.0434 -0.0413  0.2102
    1DPPC   C1B 3177   7.334  17.644   5.081 -0.0820  0.0932 -0.0003
    1DPPC   C2B 3178   7.589  17.449   4.767 -0.0753 -0.1466 -0.0352
    1DPPC   C3B 3179   7.780  17.249   4.449  0.0221  0.0959  0.2076
    1DPPC   C4B 3180   7.905  17.051   4.167 -0.3207  0.0329 -0.2126
    1DPPC   NC3 3181  19.046   8.732   6.165  0.0109  0.1171  0.1061
    1DPPC   PO4 3182  19.114   8.407   6.524  0.2900 -0.0303 -0.1135
    1DPPC   GL1 3183  18.964   8.236   6.121 -0.2518 -0.1267 -0.0116
    1DPPC   GL2 3184  19.110   8.149   5.855  0.1331 -0.2328  0.1366
    1DPPC   C1A 3185  18.697   8.348   5.746  0.0651  0.0943 -0.1425
    1DPPC   C2A 3186  18.731   8.360   5.252  0.2726 -0.2006  0.2179
    1DPPC   C3A 3187  18.770   8.229   4.812  0.2934 -0.2934  0.1564
    1DPPC   C4A 3188  18.933   8.382   4.452 -0.1500 -0.0915 -0.0553
    1DPPC   C1B 3189  19.196   8.018   5.338 -0.0220 -0.1352  0.0470
    1DPPC   C2B 3190  19.166   7.918   4.888 -0.2347  0.1701 -0.0191
    1DPPC   C3B 3191  19.151   7.780   4.506 -0.3584  0.0449 -0.2550
    1DPPC   C4B 3192  19.163   7.895   4.039  0.0498  0.0909  0.0472
    1DPPC   NC3 3193   8.158  15.006   6.601 -0.0311 -0.1581  0.1436
    1DPPC   PO4 3194   7.858  15.219   6.647  0.0691 -0.4288 -0.4475
    1DPPC   GL1 3195   7.750  14.986   6.294  0.3212 -0.1394  0.1382
    1DPPC   GL2 3196   7.664  14.745   6.467  0.0762 -0.1763  0.2704
    1DPPC   C1A 3197   7.629  14.793   5.803 -0.0104  0.1536  0.0144
    1DPPC   C2A 3198   7.351  14.905   5.511  0.0461 -0.2330  0.3322
    1DPPC   C3A 3199   7.271  15.079   5.173  0.0484 -0.0087 -0.1360
    1DPPC   C4A 3200   7.270  15.415   4.938  0.0158  0.1220 -0.4453
    1DPPC   C1B 3201   8.023  14.550   6.130  0.0799  0.0818 -0.1641
    1DPPC   C2B 3202   8.040  14.561   5.670  0.1408  0.1574  0.1835
    1DPPC   C3B 3203   7.826  14.618   5.337 -0.0653 -0.1400  0.2324
    1DPPC   C4B 3204   7.671  14.740   4.972 -0.1844 -0.1073 -0.3083
    1DPPC   NC3 3205  18.806  17.113   6.777 -0.1027 -0.1921 -0.0423
    1DPPC   PO4 3206  18.472  16.946   6.654 -0.0917  0.0021 -0.0164
    1DPPC   GL1 3207  18.686  16.879   6.314 -0.0332 -0.1467 -0.2878
    1DPPC   GL2 3208  18.976  16.795   6.264  0.1942 -0.0329  0.1998
    1DPPC   C1A 3209  18.447  16.880   5.993  0.1486 -0.0350  0.2655
    1DPPC   C2A 3210  18.362  16.803   5.687  0.1901 -0.0210 -0.3260
    1DPPC   C3A 3211  18.311  16.737   5.345  0.0815  0.1080 -0.0359
    1DPPC   C4A 3212  18.530  16.701   5.003  0.0805  0.0765 -0.5670
    1DPPC   C1B 3213  19.135  17.026   5.888 -0.0572  0.2501  0.0181
    1DPPC   C2B 3214  19.130  17.107   5.456  0.0726 -0.0447  0.3151
    1DPPC   C3B 3215  18.984  17.019   5.061 -0.1386 -0.3283  0.1101
    1DPPC   C4B 3216  18.885  17.254   4.784  0.2471 -0.0347  0.1782
    1DPPC   NC3 3217  10.111  18.258   6.847  0.2036 -0.0886 -0.1071
    1DPPC   PO4 3218  10.348  18.302   6.491  0.0700 -0.0216 -0.0349
    1DPPC   GL1 3219  10.357  18.199   6.072  0.2035  0.5374  0.2120
    1DPPC   GL2 3220  10.479  18.440   5.923  0.1370 -0.0640  0.1231
    1DPPC   C1A 3221  10.314  17.886   5.722 -0.0831  0.2738  0.0262
    1DPPC   C2A 3222  10.260  17.870   5.245 -0.2605  0.2339  0.1222
    1DPPC   C3A 3223  10.301  18.060   4.867 -0.1145  0.1140 -0.0247
    1DPPC   C4A 3224  10.489  18.054   4.335  0.0866 -0.2438 -0.0874
    1DPPC   C1B 3225  10.410  18.377   5.459 -0.1035 -0.2157 -0.1838
    1DPPC   C2B 3226  10.472  18.488   4.970  0.1040  0.0226 -0.0905
    1DPPC   C3B 3227  10.534  18.489   4.555 -0.3420  0.3112 -0.2303
    1DPPC   C4B 3228  10.205  18.739   4.215 -0.2449 -0.3374  0.0244
    1DPPC   NC3 3229   2.270  15.861   5.863  0.1500  0.4030  0.0435
    1DPPC   PO4 3230   1.793  15.750   5.732 -0.2851 -0.2960 -0.1845
    1DPPC   GL1 3231   1.770  16.022   5.497  0.1105 -0.2484  0.3100
    1DPPC   GL2 3232   1.769  16.324   5.537 -0.0797  0.0822 -0.1103
    1DPPC   C1A 3233   1.782  16.047   5.138 -0.0045 -0.2873  0.0710
    1DPPC   C2A 3234   2.050  15.977   4.722 -0.0250  0.0439  0.1613
    1DPPC   C3A 3235   2.098  15.488   4.492 -0.0933  0.0604 -0.1427
    1DPPC   C4A 3236   1.897  15.345   4.175  0.2027  0.1120  0.0776
    1DPPC   C1B 3237   1.936  16.491   5.186 -0.1777 -0.1689  0.1058
    1DPPC   C2B 3238   1.866  16.430   4.751 -0.1983 -0.0090 -0.2659
    1DPPC   C3B 3239   1.726  16.121   4.382  0.0171  0.1562 -0.1109
    1DPPC   C4B 3240   1.778  16.326   3.923  0.0159  0.0498  0.2752
    1DPPC   NC3 3241  18.944  12.175   6.820  0.1038  0.0039  0.1124
    1DPPC   PO4 3242  18.792  12.045   6.494  0.0180 -0.3667 -0.0575
    1DPPC   GL1 3243  18.729  12.208   6.138 -0.2474 -0.1303  0.1110
    1DPPC   GL2 3244  18.954  12.244   5.939  0.2354 -0.0821  0.0412
    1DPPC   C1A 3245  18.505  12.279   5.673 -0.1339  0.2106  0.1427
    1DPPC   C2A 3246  18.414  12.345   5.254 -0.1366 -0.0177 -0.2727
    1DPPC   C3A 3247  18.434  12.209   4.860 -0.1156  0.2605  0.1086
    1DPPC   C4A 3248  18.396  12.052   4.497 -0.0512  0.1293 -0.4447
    1DPPC   C1B 3249  19.231  12.036   5.544  0.1764 -0.1428 -0.0684
    1DPPC   C2B 3250  19.142  11.993   5.075  0.0272 -0.2123 -0.0676
    1DPPC   C3B 3251  19.031  11.948   4.701  0.1151  0.0828 -0.0532
    1DPPC   C4B 3252  18.775  11.694   4.463  0.1359 -0.0204  0.1625
    1DPPC   NC3 3253  15.307   8.278   6.686  0.2438  0.1311  0.0150
    1DPPC   PO4 3254  15.170   8.750   6.744  0.1258  0.0922 -0.0393
    1DPPC   GL1 3255  14.981   8.444   6.403  0.2531 -0.4093 -0.2434
    1DPPC   GL2 3256  14.629   8.418   6.467 -0.0532  0.0034  0.0108
    1DPPC   C1A 3257  14.696   8.309   5.994 -0.3442  0.2784  0.0099
    1DPPC   C2A 3258  14.789   8.345   5.639 -0.0166 -0.0444 -0.0052
    1DPPC   C3A 3259  14.712   8.383   5.224  0.2436  0.2681 -0.1052
    1DPPC   C4A 3260  14.653   8.150   4.880 -0.1098  0.0341 -0.1371
    1DPPC   C1B 3261  14.575   8.759   6.066 -0.3783 -0.1575 -0.3021
    1DPPC   C2B 3262  14.452   8.765   5.670 -0.0544  0.1183 -0.0991
    1DPPC   C3B 3263  14.431   8.820   5.306 -0.0922 -0.0728  0.1265
    1DPPC   C4B 3264  14.194   8.908   4.818 -0.0061 -0.4240 -0.0179
    1DPPC   NC3 3265  20.147  11.018   6.272 -0.2885  0.4181 -0.0946
    1DPPC   PO4 3266  19.769  11.013   6.038 -0.0328  0.2130 -0.2174
    1DPPC   GL1 3267  19.628  10.954   5.722  0.2266  0.2446 -0.0837
    1DPPC   GL2 3268  19.765  10.646   5.523  0.1681 -0.1476 -0.2065
    1DPPC   C1A 3269  19.388  11.101   5.417 -0.2071 -0.2164 -0.1513
    1DPPC   C2A 3270  19.390  11.217   4.993 -0.0698  0.2340 -0.0629
    1DPPC   C3A 3271  19.361  10.953   4.777  0.0293  0.0332  0.0107
    1DPPC   C4A 3272  19.545  10.916   4.385  0.2499 -0.1951 -0.1454
    1DPPC   C1B 3273  19.701  10.710   5.051 -0.2089  0.4257 -0.1824
    1DPPC   C2B 3274  19.779  10.623   4.694 -0.1303 -0.0806 -0.5397
    1DPPC   C3B 3275  19.716  10.331   4.389  0.4415 -0.0113 -0.1865
    1DPPC   C4B 3276  19.862   9.935   4.138  0.1701  0.2056  0.3550
    1DPPC   NC3 3277  18.587  12.462   6.603 -0.1416 -0.0718  0.0052
    1DPPC   PO4 3278  18.978  12.662   6.533 -0.1423 -0.1674  0.2726
    1DPPC   GL1 3279  19.119  12.708   6.091  0.0287  0.0758  0.1655
    1DPPC   GL2 3280  19.145  12.939   5.939 -0.1658  0.1289  0.1277
    1DPPC   C1A 3281  19.168  12.526   5.664  0.3375 -0.4267 -0.2799
    1DPPC   C2A 3282  18.920  12.414   5.277  0.2551  0.1192  0.0577
    1DPPC   C3A 3283  18.879  12.387   4.898 -0.0192  0.1160  0.1038
    1DPPC   C4A 3284  18.623  12.515   4.511  0.0358 -0.0578  0.0688
    1DPPC   C1B 3285  19.094  13.039   5.562 -0.2256  0.0897  0.2000
    1DPPC   C2B 3286  19.036  13.143   5.221 -0.1543 -0.1755  0.0295
    1DPPC   C3B 3287  18.924  12.940   4.854  0.3259 -0.0505 -0.0556
    1DPPC   C4B 3288  19.061  12.785   4.541  0.2639  0.2325 -0.1651
    1DPPC   NC3 3289  15.684  12.423   6.675 -0.0374 -0.0106 -0.0709
    1DPPC   PO4 3290  16.095  12.252   6.756  0.0110  0.0126  0.1020
    1DPPC   GL1 3291  15.971  12.158   6.332 -0.4161 -0.0105  0.3448
    1DPPC   GL2 3292  15.891  12.372   6.234  0.1128  0.2506  0.1174
    1DPPC   C1A 3293  15.918  12.020   5.873  0.1742  0.1637 -0.1270
    1DPPC   C2A 3294  15.835  12.035   5.403  0.0255 -0.1645 -0.0017
    1DPPC   C3A 3295  15.885  11.963   5.034  0.2471  0.2750  0.0603
    1DPPC   C4A 3296  15.936  11.949   4.619  0.2124  0.1219 -0.1492
    1DPPC   C1B 3297  16.053  12.539   5.954  0.0542 -0.2328 -0.0799
    1DPPC   C2B 3298  16.038  12.454   5.530 -0.1769 -0.2489  0.0539
    1DPPC   C3B 3299  15.974  12.439   5.108 -0.1141 -0.0713 -0.1733
    1DPPC   C4B 3300  15.997  12.483   4.639  0.1884 -0.1777 -0.1002
    1DPPC   NC3 3301  18.417  21.617   7.458  0.0634  0.0363  0.0492
    1DPPC   PO4 3302  18.330  21.884   7.167  0.0378 -0.1709  0.0982
    1DPPC   GL1 3303  17.848  21.856   6.951  0.1365  0.0236 -0.3211
    1DPPC   GL2 3304  17.521  21.763   7.048 -0.2169  0.2574 -0.1086
    1DPPC   C1A 3305  17.652  22.004   6.499  0.0033 -0.1590 -0.2068
    1DPPC   C2A 3306  17.767  21.825   6.110 -0.1203  0.1598  0.0060
    1DPPC   C3A 3307  17.918  21.784   5.718 -0.0336 -0.0289  0.0964
    1DPPC   C4A 3308  18.074  21.765   5.321 -0.2093 -0.0671  0.0540
    1DPPC   C1B 3309  17.387  21.664   6.668 -0.1980 -0.4238 -0.2318
    1DPPC   C2B 3310  17.415  21.398   6.320  0.3771 -0.2291 -0.1570
    1DPPC   C3B 3311  17.588  21.404   5.864  0.2300 -0.2636  0.1237
    1DPPC   C4B 3312  17.678  21.433   5.364  0.1167  0.3152 -0.0445
    1DPPC   NC3 3313  10.462  16.995   6.629  0.0773 -0.0150 -0.2314
    1DPPC   PO4 3314  10.809  17.030   6.401 -0.2211 -0.3280  0.0070
    1DPPC   GL1 3315  10.513  16.882   6.126  0.0973  0.0585  0.0553
    1DPPC   GL2 3316  10.143  16.955   6.177  0.2895 -0.1809 -0.2375
    1DPPC   C1A 3317  10.284  16.591   5.880 -0.2597 -0.1538 -0.1545
    1DPPC   C2A 3318  10.333  16.586   5.491 -0.1673 -0.2580  0.0161
    1DPPC   C3A 3319  10.335  16.458   4.994 -0.0712  0.0150 -0.2969
    1DPPC   C4A 3320  10.365  16.333   4.653  0.0483  0.0866 -0.0270
    1DPPC   C1B 3321  10.070  16.993   5.656  0.1273  0.1167  0.0058
    1DPPC   C2B 3322   9.929  16.924   5.318 -0.0579 -0.0517  0.2823
    1DPPC   C3B 3323   9.717  16.799   5.012  0.1945  0.1103 -0.0144
    1DPPC   C4B 3324   9.375  16.938   4.786  0.1338 -0.0473 -0.2288
    1DPPC   NC3 3325  21.888  15.584   6.281 -0.0985 -0.0887 -0.0788
    1DPPC   PO4 3326  22.124  15.225   6.170  0.1139  0.1400 -0.0947
    1DPPC   GL1 3327  22.221  15.343   5.742 -0.0810 -0.0481 -0.1961
    1DPPC   GL2 3328  22.044  15.591   5.806  0.0138  0.0951 -0.3818
    1DPPC   C1A 3329  22.331  15.260   5.254  0.0257  0.2467 -0.0535
    1DPPC   C2A 3330  22.483  15.197   4.834  0.0406 -0.1762  0.1000
    1DPPC   C3A 3331  22.634  15.208   4.433  0.2353  0.2529  0.1113
    1DPPC   C4A 3332  22.334  14.970   4.113 -0.0841 -0.0955  0.1513
    1DPPC   C1B 3333  21.940  15.669   5.392 -0.0701  0.1391  0.0288
    1DPPC   C2B 3334  21.751  15.479   4.902  0.0925  0.0644  0.0069
    1DPPC   C3B 3335  21.444  15.703   4.590  0.0473 -0.1176  0.3534
    1DPPC   C4B 3336  21.337  16.082   4.496 -0.0294 -0.0999 -0.0456
    1DPPC   NC3 3337  19.038  14.175   6.351  0.2703 -0.1214  0.0618
    1DPPC   PO4 3338  19.040  14.692   6.426 -0.0475  0.0602 -0.0855
    1DPPC   GL1 3339  18.872  14.928   6.094 -0.1781 -0.0867 -0.4202
    1DPPC   GL2 3340  18.696  15.125   6.112  0.1746  0.3344  0.1193
    1DPPC   C1A 3341  19.061  15.034   5.746  0.3345 -0.2560  0.0541
    1DPPC   C2A 3342  19.097  15.097   5.266  0.0456  0.1806 -0.0302
    1DPPC   C3A 3343  19.151  15.023   4.837 -0.2778  0.0778 -0.0982
    1DPPC   C4A 3344  18.958  15.138   4.483  0.0672  0.1428  0.1461
    1DPPC   C1B 3345  18.694  15.372   5.746 -0.3904  0.0574  0.1727
    1DPPC   C2B 3346  18.696  15.421   5.330 -0.2137  0.1653 -0.0482
    1DPPC   C3B 3347  18.684  15.336   4.907 -0.0091  0.0127 -0.0836
    1DPPC   C4B 3348  18.518  15.384   4.493 -0.0673  0.0687  0.2828
    1DPPC   NC3 3349  15.840  12.099   7.293  0.0578  0.0585  0.0131
    1DPPC   PO4 3350  15.560  12.071   6.990  0.2583 -0.1176  0.0256
    1DPPC   GL1 3351  15.645  11.842   6.650  0.2874 -0.0086 -0.0143
    1DPPC   GL2 3352  15.929  11.693   6.534  0.3522 -0.0655  0.1165
    1DPPC   C1A 3353  15.500  11.634   6.232 -0.2759 -0.1285 -0.0647
    1DPPC   C2A 3354  15.569  11.686   5.928  0.0129  0.1367  0.1589
    1DPPC   C3A 3355  15.585  11.682   5.569  0.1380  0.2230 -0.0547
    1DPPC   C4A 3356  15.553  11.636   5.102 -0.0524  0.0414 -0.2679
    1DPPC   C1B 3357  16.106  11.642   6.206  0.1549 -0.0291  0.2237
    1DPPC   C2B 3358  16.076  11.541   5.768  0.3157  0.0916  0.0701
    1DPPC   C3B 3359  16.107  11.603   5.350  0.3932 -0.0546  0.1740
    1DPPC   C4B 3360  16.096  11.519   4.921 -0.1254 -0.0914 -0.0372
    1DPPC   NC3 3361  26.447  10.525   6.243 -0.0965 -0.1616  0.1664
    1DPPC   PO4 3362  26.840  10.738   6.248 -0.0217 -0.0127  0.1740
    1DPPC   GL1 3363  26.968  10.748   5.791  0.0312 -0.3690 -0.2352
    1DPPC   GL2 3364  27.014  11.039   5.689 -0.3400  0.0602  0.0667
    1DPPC   C1A 3365  26.955  10.545   5.397 -0.3289  0.0786 -0.0440
    1DPPC   C2A 3366  27.160  10.440   5.077  0.2587 -0.0733 -0.0553
    1DPPC   C3A 3367  27.371  10.430   4.665 -0.0201  0.0021  0.2127
    1DPPC   C4A 3368  27.403  10.071   4.290  0.1144  0.1971  0.1486
    1DPPC   C1B 3369  27.160  10.939   5.261  0.1197  0.3838 -0.0774
    1DPPC   C2B 3370  27.061  10.810   4.771  0.2157  0.0935 -0.0650
    1DPPC   C3B 3371  26.849  10.574   4.461  0.4058 -0.3416 -0.3797
    1DPPC   C4B 3372  26.896  10.134   4.270 -0.3675  0.1254 -0.0207
    1DPPC   NC3 3373  22.552   3.972   7.078  0.0904 -0.1516  0.1946
    1DPPC   PO4 3374  22.816   3.620   6.780 -0.1014 -0.0023 -0.0214
    1DPPC   GL1 3375  22.719   3.718   6.323  0.2696 -0.0702  0.0035
    1DPPC   GL2 3376  23.051   3.876   6.195 -0.0385 -0.0561  0.4784
    1DPPC   C1A 3377  22.625   3.796   5.905 -0.2417 -0.2071  0.4057
    1DPPC   C2A 3378  22.734   3.694   5.465 -0.0351 -0.3549  0.0603
    1DPPC   C3A 3379  22.919   3.491   5.180  0.2272 -0.1722  0.0508
    1DPPC   C4A 3380  23.091   3.052   5.182  0.0451  0.2031  0.2022
    1DPPC   C1B 3381  23.135   3.807   5.803 -0.0346  0.3998 -0.3529
    1DPPC   C2B 3382  23.219   3.868   5.392 -0.1348 -0.1428 -0.0636
    1DPPC   C3B 3383  22.888   4.053   5.134 -0.2739  0.0942 -0.1470
    1DPPC   C4B 3384  22.535   4.167   5.010 -0.1926  0.1368  0.2595
    1DPPC   NC3 3385   1.406  13.826   6.233 -0.0995 -0.0007 -0.0048
    1DPPC   PO4 3386   1.013  13.729   6.003  0.0238  0.1500 -0.0858
    1DPPC   GL1 3387   1.267  13.740   5.669  0.3948 -0.0722 -0.2931
    1DPPC   GL2 3388   1.585  13.850   5.685  0.1751 -0.2389  0.0060
    1DPPC   C1A 3389   1.124  13.813   5.180 -0.1844 -0.4075 -0.0346
    1DPPC   C2A 3390   1.130  13.427   4.892  0.1903  0.0908  0.2977
    1DPPC   C3A 3391   1.248  13.096   4.610 -0.3772 -0.1912 -0.0058
    1DPPC   C4A 3392   1.216  12.753   4.325 -0.1087  0.0970 -0.0333
    1DPPC   C1B 3393   1.626  13.875   5.254  0.0789  0.1248  0.1591
    1DPPC   C2B 3394   1.486  13.858   4.802 -0.0098 -0.4075  0.2193
    1DPPC   C3B 3395   1.469  13.544   4.447 -0.0722  0.0228  0.1775
    1DPPC   C4B 3396   1.579  13.575   4.039  0.4157 -0.0859 -0.0928
    1DPPC   NC3 3397   6.791   5.078   7.232  0.1283 -0.1862 -0.1385
    1DPPC   PO4 3398   7.119   4.764   7.390 -0.0080  0.0391 -0.4222
    1DPPC   GL1 3399   7.307   4.721   7.005  0.2229 -0.2944  0.3156
    1DPPC   GL2 3400   7.425   4.385   6.840  0.2113  0.0060  0.0163
    1DPPC   C1A 3401   7.183   4.789   6.573  0.0322  0.2101  0.0047
    1DPPC   C2A 3402   7.142   4.940   6.147 -0.1579  0.0460  0.1196
    1DPPC   C3A 3403   7.341   5.071   5.639  0.0111  0.0819  0.0114
    1DPPC   C4A 3404   7.747   4.995   5.413  0.1605 -0.0145 -0.0396
    1DPPC   C1B 3405   7.350   4.266   6.369 -0.1850 -0.3804  0.1122
    1DPPC   C2B 3406   7.411   4.567   6.034  0.0832  0.2787  0.0564
    1DPPC   C3B 3407   7.658   4.852   5.996 -0.1732 -0.2584 -0.1508
    1DPPC   C4B 3408   7.834   5.254   5.849  0.1379 -0.1656  0.0054
    1DPPC   NC3 3409  16.918  10.936   6.713 -0.0295  0.0002 -0.1624
    1DPPC   PO4 3410  17.333  10.903   6.580  0.0171 -0.1755 -0.1977
    1DPPC   GL1 3411  17.513  11.260   6.284  0.0027  0.3447 -0.0424
    1DPPC   GL2 3412  17.322  11.589   6.197  0.0322  0.3380 -0.1031
    1DPPC   C1A 3413  17.621  11.289   5.890 -0.2429  0.1072 -0.2856
    1DPPC   C2A 3414  17.506  11.266   5.486 -0.2436 -0.2281 -0.0307
    1DPPC   C3A 3415  17.502  11.350   5.056 -0.1759  0.1117  0.0158
    1DPPC   C4A 3416  17.460  11.144   4.642 -0.3551  0.1613  0.3692
    1DPPC   C1B 3417  17.127  11.381   5.840  0.1797  0.1057 -0.0625
    1DPPC   C2B 3418  17.055  11.309   5.393  0.0804  0.0429 -0.0979
    1DPPC   C3B 3419  16.997  11.250   4.965 -0.0818 -0.1126 -0.0459
    1DPPC   C4B 3420  17.008  11.252   4.555  0.1091 -0.0174  0.1392
    1DPPC   NC3 3421  12.144  21.150   6.073 -0.2022 -0.1465  0.0805
    1DPPC   PO4 3422  11.791  21.515   6.109  0.0845  0.0155 -0.2810
    1DPPC   GL1 3423  11.879  21.392   5.702  0.1945  0.2693 -0.0819
    1DPPC   GL2 3424  12.157  21.318   5.623  0.5222 -0.0155  0.0196
    1DPPC   C1A 3425  11.742  21.179   5.295 -0.3343  0.1595 -0.1198
    1DPPC   C2A 3426  11.604  21.129   4.950 -0.1135 -0.5600 -0.2070
    1DPPC   C3A 3427  11.380  21.203   4.585 -0.1268  0.1539  0.0558
    1DPPC   C4A 3428  10.949  21.343   4.414 -0.2743 -0.1735 -0.1843
    1DPPC   C1B 3429  12.304  21.220   5.275  0.1747  0.1473  0.0466
    1DPPC   C2B 3430  12.374  21.257   4.830  0.1497  0.0815  0.2684
    1DPPC   C3B 3431  12.371  21.289   4.356  0.0094  0.3462 -0.0688
    1DPPC   C4B 3432  12.734  21.455   4.002 -0.1989 -0.2848 -0.0819
    1DPPC   NC3 3433  14.414   9.675   7.125  0.1858  0.1647 -0.0713
    1DPPC   PO4 3434  14.462  10.151   7.168  0.1753 -0.2654 -0.0120
    1DPPC   GL1 3435  14.216  10.265   6.699 -0.3933 -0.1345  0.2080
    1DPPC   GL2 3436  14.391  10.440   6.413  0.0658 -0.0518  0.0212
    1DPPC   C1A 3437  13.924  10.052   6.413 -0.1279 -0.1099  0.1013
    1DPPC   C2A 3438  13.858   9.897   6.070  0.0421 -0.4007  0.1121
    1DPPC   C3A 3439  13.650   9.885   5.674 -0.3271 -0.2975 -0.2254
    1DPPC   C4A 3440  13.620  10.057   5.343  0.3451  0.0004  0.1390
    1DPPC   C1B 3441  14.307  10.182   6.118  0.3091 -0.0315  0.0077
    1DPPC   C2B 3442  14.180  10.089   5.700  0.1961  0.0649  0.0924
    1DPPC   C3B 3443  14.086  10.145   5.265 -0.5532  0.2919  0.1884
    1DPPC   C4B 3444  14.004  10.239   4.862 -0.1466 -0.2339 -0.0462
    1DPPC   NC3 3445  20.322  12.776   6.358  0.1053  0.2060  0.1824
    1DPPC   PO4 3446  20.746  12.635   6.523  0.0263 -0.0162 -0.1817
    1DPPC   GL1 3447  20.695  12.827   6.027 -0.5597  0.0833 -0.2890
    1DPPC   GL2 3448  20.906  13.111   5.964  0.0262  0.0723 -0.3634
    1DPPC   C1A 3449  20.595  12.610   5.640 -0.0296  0.1944 -0.0165
    1DPPC   C2A 3450  20.577  12.560   5.156  0.1954 -0.1117  0.0326
    1DPPC   C3A 3451  20.491  12.628   4.780  0.1385  0.4315 -0.1237
    1DPPC   C4A 3452  20.539  12.379   4.396 -0.1759 -0.3049  0.0356
    1DPPC   C1B 3453  21.067  13.248   5.643  0.0591 -0.2401  0.2568
    1DPPC   C2B 3454  21.165  13.617   5.372  0.0521  0.2479 -0.1407
    1DPPC   C3B 3455  21.328  13.867   4.982 -0.2230  0.2874  0.0588
    1DPPC   C4B 3456  21.510  14.020   4.600 -0.1016  0.1029  0.0152
    1DPPC   NC3 3457  17.972  13.959   6.659 -0.3026 -0.0006 -0.3216
    1DPPC   PO4 3458  17.717  14.382   6.454  0.0098  0.2677  0.2418
    1DPPC   GL1 3459  17.741  14.531   6.046  0.0826  0.3173 -0.1861
    1DPPC   GL2 3460  17.779  14.841   6.052  0.1833 -0.3347  0.3604
    1DPPC   C1A 3461  17.920  14.478   5.616  0.2246  0.0044  0.0031
    1DPPC   C2A 3462  17.922  14.467   5.194  0.0838  0.1379 -0.1076
    1DPPC   C3A 3463  18.067  14.393   4.756  0.1739 -0.1548  0.2151
    1DPPC   C4A 3464  18.093  14.590   4.353  0.0885 -0.0103  0.1061
    1DPPC   C1B 3465  17.818  14.947   5.601  0.0204 -0.0281  0.0546
    1DPPC   C2B 3466  17.834  15.013   5.252 -0.0115  0.0177 -0.3295
    1DPPC   C3B 3467  17.688  14.798   4.903  0.1910  0.3522 -0.1082
    1DPPC   C4B 3468  17.666  14.662   4.565 -0.1739  0.0670 -0.0170
    1DPPC   NC3 3469  19.240   9.063   6.677 -0.1195 -0.0631 -0.2189
    1DPPC   PO4 3470  18.965   9.191   6.304  0.1437  0.1838  0.0304
    1DPPC   GL1 3471  18.676   9.142   5.929 -0.3081 -0.3002  0.1248
    1DPPC   GL2 3472  18.802   8.842   5.784 -0.1057  0.1180  0.2496
    1DPPC   C1A 3473  18.356   9.246   5.602  0.0520 -0.1826 -0.2266
    1DPPC   C2A 3474  18.252   9.207   5.238  0.1768 -0.0997 -0.3650
    1DPPC   C3A 3475  18.140   9.260   4.767 -0.2831  0.0487  0.0713
    1DPPC   C4A 3476  18.158   9.124   4.302  0.0174  0.0652  0.0746
    1DPPC   C1B 3477  18.688   8.932   5.343  0.0428 -0.1410 -0.0127
    1DPPC   C2B 3478  18.536   8.856   4.917  0.1101 -0.1060  0.0872
    1DPPC   C3B 3479  18.543   8.683   4.519  0.3224 -0.0367  0.0919
    1DPPC   C4B 3480  18.538   8.393   4.097 -0.1517 -0.0031  0.0401
    1DPPC   NC3 3481  19.187  15.322   6.263 -0.2518 -0.0817  0.0206
    1DPPC   PO4 3482  18.946  15.637   6.406  0.0387 -0.2894 -0.0987
    1DPPC   GL1 3483  18.763  15.771   6.033 -0.1928  0.3540  0.3385
    1DPPC   GL2 3484  18.483  15.961   5.977  0.1559 -0.2233  0.0275
    1DPPC   C1A 3485  18.844  15.956   5.640  0.2330  0.2109  0.1643
    1DPPC   C2A 3486  18.802  15.942   5.261 -0.0363 -0.1170 -0.0632
    1DPPC   C3A 3487  18.774  15.832   4.908  0.3265 -0.0324  0.2459
    1DPPC   C4A 3488  18.976  15.638   4.573 -0.3235 -0.2405 -0.1747
    1DPPC   C1B 3489  18.400  15.792   5.649  0.4181  0.0554 -0.0098
    1DPPC   C2B 3490  18.368  15.743   5.251  0.1594 -0.0853  0.0079
    1DPPC   C3B 3491  18.273  15.804   4.843 -0.0818 -0.2622 -0.1567
    1DPPC   C4B 3492  18.016  15.528   4.504  0.0592  0.1938  0.1336
    1DPPC   NC3 3493  19.261  17.904   6.763 -0.1498  0.0473  0.0421
    1DPPC   PO4 3494  19.733  17.972   6.768 -0.1198  0.0965  0.0056
    1DPPC   GL1 3495  19.558  18.002   6.357 -0.2186 -0.0170 -0.0454
    1DPPC   GL2 3496  19.846  17.812   6.224  0.1673  0.1988  0.3599
    1DPPC   C1A 3497  19.463  18.188   5.979  0.0576  0.0577  0.1771
    1DPPC   C2A 3498  19.523  18.193   5.607  0.1345  0.0316  0.0994
    1DPPC   C3A 3499  19.388  18.432   5.197  0.1594 -0.1255 -0.0409
    1DPPC   C4A 3500  19.036  18.503   4.963 -0.1003  0.1237 -0.0822
    1DPPC   C1B 3501  19.773  17.807   5.862  0.3036 -0.0747  0.2364
    1DPPC   C2B 3502  19.880  17.800   5.386  0.0483 -0.1702 -0.0725
    1DPPC   C3B 3503  19.749  17.858   5.067  0.1134  0.0389 -0.0119
    1DPPC   C4B 3504  19.778  18.163   4.707  0.1817 -0.0258 -0.0326
    1DPPC   NC3 3505  17.460  15.599   6.691 -0.0112  0.3342  0.1140
    1DPPC   PO4 3506  17.555  16.020   6.581 -0.0547  0.1723  0.0518
    1DPPC   GL1 3507  17.614  16.330   6.241 -0.0832 -0.2274  0.1733
    1DPPC   GL2 3508  17.472  16.671   6.260  0.1155 -0.3026  0.0150
    1DPPC   C1A 3509  17.672  16.331   5.890  0.0003  0.1801 -0.2541
    1DPPC   C2A 3510  17.668  16.412   5.500  0.1717 -0.1683  0.1010
    1DPPC   C3A 3511  17.882  16.531   5.231 -0.1134 -0.2539  0.1539
    1DPPC   C4A 3512  17.987  16.441   4.747  0.2397 -0.0758 -0.3327
    1DPPC   C1B 3513  17.318  16.785   5.784  0.2630 -0.3375  0.0437
    1DPPC   C2B 3514  17.419  16.901   5.332 -0.3776  0.0378 -0.4501
    1DPPC   C3B 3515  17.409  16.951   4.929 -0.5170 -0.0237 -0.0457
    1DPPC   C4B 3516  17.702  16.923   4.551  0.2813 -0.0779  0.2790
    1DPPC   NC3 3517  14.608  10.565   6.939 -0.0110 -0.1165 -0.1037
    1DPPC   PO4 3518  14.280  10.758   6.793  0.1099  0.0113  0.2032
    1DPPC   GL1 3519  14.223  10.935   6.478 -0.0106 -0.0660  0.0701
    1DPPC   GL2 3520  14.430  11.052   6.369 -0.3807 -0.0703 -0.0876
    1DPPC   C1A 3521  13.980  11.114   6.037  0.1059 -0.1010 -0.0966
    1DPPC   C2A 3522  13.877  11.116   5.641 -0.1640 -0.0075  0.0826
    1DPPC   C3A 3523  13.762  11.187   5.269 -0.2913  0.2396  0.0507
    1DPPC   C4A 3524  13.477  11.318   4.993 -0.1355  0.1396  0.0818
    1DPPC   C1B 3525  14.387  10.869   6.023  0.0438 -0.0846 -0.4773
    1DPPC   C2B 3526  14.371  11.052   5.675  0.4333 -0.1492  0.2416
    1DPPC   C3B 3527  14.265  11.072   5.262  0.0685  0.0895  0.1629
    1DPPC   C4B 3528  14.108  11.164   4.751  0.0797  0.1491 -0.1869
    1DPPC   NC3 3529  15.359  20.632   6.723  0.0727  0.3428  0.0667
    1DPPC   PO4 3530  15.812  20.646   6.690  0.1097 -0.0552  0.1199
    1DPPC   GL1 3531  15.834  20.440   6.335  0.2863 -0.2756  0.0779
    1DPPC   GL2 3532  16.031  20.656   6.209  0.3073 -0.1847 -0.2095
    1DPPC   C1A 3533  15.527  20.350   6.133 -0.3287 -0.2283 -0.1435
    1DPPC   C2A 3534  15.317  20.407   5.772 -0.3427  0.0546  0.1018
    1DPPC   C3A 3535  15.414  20.513   5.253 -0.1820  0.1138  0.0671
    1DPPC   C4A 3536  15.411  20.674   4.876  0.1237  0.0972  0.1400
    1DPPC   C1B 3537  16.168  20.625   5.823  0.2832 -0.0044  0.0240
    1DPPC   C2B 3538  16.121  20.730   5.424 -0.1432  0.2518  0.0713
    1DPPC   C3B 3539  16.331  20.557   5.092 -0.2313 -0.2466 -0.0251
    1DPPC   C4B 3540  16.373  20.247   4.792 -0.0344 -0.0414 -0.1132
    1DPPC   NC3 3541  13.165  10.458   7.513  0.0519  0.0556  0.2772
    1DPPC   PO4 3542  13.248  10.526   7.044  0.0014  0.5352  0.0635
    1DPPC   GL1 3543  13.341  10.609   6.585  0.1893 -0.1003  0.3875
    1DPPC   GL2 3544  13.280  10.803   6.375 -0.3329 -0.0652 -0.2073
    1DPPC   C1A 3545  13.368  10.488   6.040  0.0288 -0.1492 -0.0716
    1DPPC   C2A 3546  13.352  10.401   5.682 -0.1244 -0.0627  0.2356
    1DPPC   C3A 3547  13.248  10.386   5.276  0.0559 -0.0147  0.1189
    1DPPC   C4A 3548  13.473  10.726   5.078 -0.0118 -0.2127  0.2254
    1DPPC   C1B 3549  13.426  10.980   5.958 -0.1402  0.3742  0.4103
    1DPPC   C2B 3550  13.334  11.021   5.542 -0.4672 -0.1922 -0.2327
    1DPPC   C3B 3551  13.109  11.158   5.269 -0.0103 -0.2827 -0.0814
    1DPPC   C4B 3552  13.023  11.556   5.094 -0.1861 -0.1290  0.0392
    1DPPC   NC3 3553  16.043  11.259   6.720  0.1016  0.0515  0.0175
    1DPPC   PO4 3554  15.941  10.840   6.870 -0.0508 -0.1602 -0.1711
    1DPPC   GL1 3555  16.029  10.814   6.439 -0.0462 -0.0624  0.3008
    1DPPC   GL2 3556  16.384  10.959   6.398  0.2719  0.0007 -0.0672
    1DPPC   C1A 3557  15.809  10.721   6.039 -0.1382  0.0827  0.1887
    1DPPC   C2A 3558  15.871  10.717   5.534 -0.0278 -0.0670 -0.0163
    1DPPC   C3A 3559  15.890  10.651   5.068  0.3446  0.0501 -0.1883
    1DPPC   C4A 3560  15.742  10.698   4.697  0.0514 -0.1349 -0.3231
    1DPPC   C1B 3561  16.278  11.041   6.068 -0.2489  0.1596 -0.2408
    1DPPC   C2B 3562  16.189  11.088   5.654  0.2060  0.2117  0.0294
    1DPPC   C3B 3563  16.208  11.034   5.249 -0.2043 -0.0115 -0.0748
    1DPPC   C4B 3564  16.139  11.004   4.799  0.1259  0.1120 -0.0294
    1DPPC   NC3 3565   9.712  13.557   7.142  0.0378  0.0329  0.0003
    1DPPC   PO4 3566   9.529  13.919   7.085 -0.1280 -0.0195 -0.1093
    1DPPC   GL1 3567   9.621  14.025   6.631 -0.4488 -0.1572 -0.1459
    1DPPC   GL2 3568   9.814  14.144   6.576 -0.1269  0.0659  0.3103
    1DPPC   C1A 3569   9.574  13.953   6.191 -0.2668 -0.1629 -0.1831
    1DPPC   C2A 3570   9.773  13.823   5.824  0.0632 -0.4048 -0.0319
    1DPPC   C3A 3571  10.191  13.745   5.581  0.1138  0.2363 -0.3512
    1DPPC   C4A 3572  10.286  13.756   5.056  0.1577 -0.0220 -0.2828
    1DPPC   C1B 3573   9.976  14.215   6.153  0.0143  0.0294 -0.1374
    1DPPC   C2B 3574  10.123  14.222   5.715  0.1133 -0.2221 -0.3051
    1DPPC   C3B 3575  10.185  14.175   5.363 -0.2261  0.0764 -0.0002
    1DPPC   C4B 3576  10.083  14.115   4.843  0.0291  0.0170 -0.1705
    1DPPC   NC3 3577  17.476  14.815   6.487 -0.1496  0.0536  0.0237
    1DPPC   PO4 3578  17.667  15.137   6.553  0.0870  0.1464 -0.2548
    1DPPC   GL1 3579  17.427  15.182   6.132 -0.1350  0.0547  0.1921
    1DPPC   GL2 3580  17.058  15.119   6.188 -0.1665  0.5508 -0.0692
    1DPPC   C1A 3581  17.370  15.199   5.594 -0.0593 -0.0474 -0.1755
    1DPPC   C2A 3582  17.417  15.263   5.185  0.0271  0.4199  0.0084
    1DPPC   C3A 3583  17.332  15.125   4.875  0.2299 -0.0822  0.0399
    1DPPC   C4A 3584  17.258  15.116   4.422 -0.0852  0.1428  0.1781
    1DPPC   C1B 3585  16.962  15.390   5.845  0.0059  0.0446 -0.3155
    1DPPC   C2B 3586  16.952  15.460   5.472  0.1928 -0.1051  0.1414
    1DPPC   C3B 3587  17.019  15.486   5.004 -0.0760 -0.3321  0.2159
    1DPPC   C4B 3588  16.910  15.511   4.557 -0.2835  0.1644 -0.0641
    1DPPC   NC3 3589  10.647  11.590   7.332  0.1420  0.0458 -0.1209
    1DPPC   PO4 3590  10.676  11.220   7.049 -0.0999  0.0302 -0.1397
    1DPPC   GL1 3591  10.713  11.250   6.628  0.2634  0.0099  0.2223
    1DPPC   GL2 3592  11.093  11.401   6.653  0.1246  0.1311 -0.0696
    1DPPC   C1A 3593  10.682  11.624   6.349 -0.4653  0.1161  0.0221
    1DPPC   C2A 3594  10.690  11.647   5.897  0.0675  0.0688  0.1067
    1DPPC   C3A 3595  10.724  11.361   5.542 -0.0102  0.1764 -0.0307
    1DPPC   C4A 3596  11.113  11.230   5.441 -0.0829  0.1420  0.2816
    1DPPC   C1B 3597  11.068  11.303   6.104  0.1233  0.1045  0.0203
    1DPPC   C2B 3598  11.240  11.385   5.861  0.1041 -0.0189  0.1988
    1DPPC   C3B 3599  11.303  11.715   5.535  0.0292 -0.1367  0.1242
    1DPPC   C4B 3600  11.438  12.135   5.336 -0.0180 -0.2117  0.2964
    1DPPC   NC3 3601  14.806  17.651   6.741 -0.1180 -0.3691  0.0084
    1DPPC   PO4 3602  15.234  17.656   6.688 -0.1267  0.0446 -0.1127
    1DPPC   GL1 3603  14.914  17.741   6.288 -0.2193  0.4070  0.2462
    1DPPC   GL2 3604  14.639  17.951   6.352 -0.2433  0.0966  0.3193
    1DPPC   C1A 3605  14.691  17.551   5.997  0.0571  0.1293  0.2112
    1DPPC   C2A 3606  14.858  17.613   5.658  0.0898 -0.0755 -0.1408
    1DPPC   C3A 3607  14.867  17.502   5.202 -0.0251 -0.4251 -0.1639
    1DPPC   C4A 3608  14.859  17.556   4.772 -0.1404  0.0069  0.0596
    1DPPC   C1B 3609  14.713  18.085   5.893 -0.1238  0.2935  0.0852
    1DPPC   C2B 3610  14.776  18.065   5.460  0.1291  0.0533  0.0166
    1DPPC   C3B 3611  14.696  18.034   4.986 -0.2429  0.0817  0.0653
    1DPPC   C4B 3612  14.992  18.059   4.746  0.0369 -0.0982  0.0901
    1DPPC   NC3 3613  24.211  17.348   6.078  0.1316  0.0297  0.2010
    1DPPC   PO4 3614  23.737  17.317   6.141  0.1719 -0.2267  0.3009
    1DPPC   GL1 3615  23.754  17.264   5.667  0.0639 -0.2383  0.1144
    1DPPC   GL2 3616  24.018  17.093   5.648 -0.0003 -0.0448 -0.3135
    1DPPC   C1A 3617  23.622  17.449   5.290  0.5562 -0.0498 -0.2330
    1DPPC   C2A 3618  23.366  17.590   5.008  0.0751 -0.3363  0.0228
    1DPPC   C3A 3619  23.460  17.660   4.595 -0.0764 -0.2933 -0.2292
    1DPPC   C4A 3620  23.669  17.742   4.144  0.2336 -0.2445  0.1962
    1DPPC   C1B 3621  23.852  16.997   5.209 -0.1006  0.4156  0.2654
    1DPPC   C2B 3622  23.723  17.157   4.767 -0.0405  0.0435  0.0936
    1DPPC   C3B 3623  23.743  17.296   4.363  0.0848  0.1770  0.0063
    1DPPC   C4B 3624  23.951  17.376   4.028  0.1266 -0.1378 -0.0045
    1DPPC   NC3 3625  13.832  18.378   6.327  0.0019  0.2265  0.4252
    1DPPC   PO4 3626  14.206  18.207   6.416  0.0448 -0.2774  0.0835
    1DPPC   GL1 3627  14.382  18.388   6.081  0.1963 -0.1063 -0.2254
    1DPPC   GL2 3628  14.117  18.416   5.873  0.0102  0.1241  0.0158
    1DPPC   C1A 3629  14.557  18.786   5.815  0.1490  0.5223 -0.3038
    1DPPC   C2A 3630  14.623  18.831   5.339 -0.0322 -0.0856  0.0937
    1DPPC   C3A 3631  14.506  18.894   4.828 -0.0257 -0.2299  0.1008
    1DPPC   C4A 3632  14.711  18.760   4.481  0.1325  0.0321 -0.1009
    1DPPC   C1B 3633  14.424  18.356   5.534 -0.2121  0.0787  0.0858
    1DPPC   C2B 3634  14.379  18.384   5.049  0.3331  0.1172 -0.1622
    1DPPC   C3B 3635  14.524  18.322   4.604 -0.1304  0.2074 -0.0366
    1DPPC   C4B 3636  14.616  17.961   4.476  0.2161 -0.0678 -0.1096
    1DPPC   NC3 3637  15.111   7.256   6.873  0.0863  0.0052  0.0879
    1DPPC   PO4 3638  15.417   6.926   6.824 -0.0818 -0.0875  0.0900
    1DPPC   GL1 3639  15.317   6.963   6.382 -0.0910 -0.0396 -0.0073
    1DPPC   GL2 3640  15.723   7.108   6.100  0.3513  0.1641  0.0128
    1DPPC   C1A 3641  15.013   6.804   6.172  0.2631 -0.3015 -0.1761
    1DPPC   C2A 3642  14.773   7.082   5.897  0.0204  0.1867 -0.1239
    1DPPC   C3A 3643  14.552   7.308   5.441 -0.3479 -0.0409  0.0810
    1DPPC   C4A 3644  14.313   7.149   5.008  0.0202 -0.1023  0.2031
    1DPPC   C1B 3645  15.725   7.423   5.825  0.1155 -0.0947 -0.1552
    1DPPC   C2B 3646  15.364   7.520   5.523  0.2817 -0.0061  0.0916
    1DPPC   C3B 3647  14.976   7.498   5.309  0.0399  0.3643 -0.2089
    1DPPC   C4B 3648  14.823   7.226   5.014  0.0202 -0.1447  0.4129
    1DIPC   NC3 3649   5.154  15.309   5.789  0.1518 -0.1099 -0.0425
    1DIPC   PO4 3650   4.751  15.588   5.891 -0.0130 -0.0464  0.0254
    1DIPC   GL1 3651   4.807  15.544   5.452  0.0129 -0.1530  0.0514
    1DIPC   GL2 3652   4.888  15.729   5.110 -0.2180  0.2174 -0.1694
    1DIPC   C1A 3653   4.807  15.210   5.154 -0.2007 -0.0848 -0.1543
    1DIPC   D2A 3654   4.772  15.134   4.739  0.0084 -0.2165  0.0464
    1DIPC   D3A 3655   4.496  15.371   4.711 -0.1598  0.2222 -0.1295
    1DIPC   C4A 3656   4.414  15.651   5.069 -0.1238 -0.0816 -0.1790
    1DIPC   C1B 3657   4.831  15.710   4.648 -0.3363  0.0276  0.0176
    1DIPC   D2B 3658   4.828  15.538   4.264 -0.2016  0.2872  0.2647
    1DIPC   D3B 3659   4.475  15.893   4.215 -0.1177 -0.2266  0.0041
    1DIPC   C4B 3660   4.014  15.985   4.012 -0.2649 -0.1159  0.0241
    1DIPC   NC3 3661   4.671  14.331   6.356  0.0350 -0.0065 -0.0710
    1DIPC   PO4 3662   4.895  14.192   5.982 -0.0091  0.1610  0.0199
    1DIPC   GL1 3663   4.947  14.023   5.574  0.0325 -0.0529 -0.1367
    1DIPC   GL2 3664   4.990  14.104   5.387 -0.1747 -0.2027 -0.1595
    1DIPC   C1A 3665   5.048  13.614   5.313 -0.1440  0.1084 -0.2150
    1DIPC   D2A 3666   5.188  13.111   5.225 -0.1559 -0.1266  0.1013
    1DIPC   D3A 3667   5.179  13.200   4.721 -0.1394  0.0134  0.0543
    1DIPC   C4A 3668   5.055  13.681   4.811 -0.1002  0.1820  0.0234
    1DIPC   C1B 3669   4.913  14.195   4.892 -0.2449  0.0548 -0.2132
    1DIPC   D2B 3670   4.510  14.329   4.624 -0.0424  0.1804  0.1229
    1DIPC   D3B 3671   4.282  14.029   4.419 -0.2521  0.0703 -0.1578
    1DIPC   C4B 3672   3.890  14.154   4.272  0.1010 -0.3313  0.1807
    1DIPC   NC3 3673  11.334  24.081   6.325  0.0177  0.0802  0.0711
    1DIPC   PO4 3674  11.548  24.508   6.137 -0.1729  0.2564  0.4315
    1DIPC   GL1 3675  11.369  24.578   5.745 -0.1904 -0.1400 -0.2949
    1DIPC   GL2 3676  10.965  24.624   5.687  0.0417 -0.0401 -0.0763
    1DIPC   C1A 3677  11.428  24.532   5.264  0.2000 -0.2266  0.0727
    1DIPC   D2A 3678  11.355  24.850   5.043 -0.1709  0.0506  0.0958
    1DIPC   D3A 3679  11.479  24.829   4.630 -0.1142 -0.0325  0.2549
    1DIPC   C4A 3680  11.639  25.216   4.532 -0.0063 -0.0650 -0.0393
    1DIPC   C1B 3681  10.753  24.806   5.326  0.2888 -0.0997 -0.1045
    1DIPC   D2B 3682  10.863  25.151   5.180 -0.0688 -0.0298  0.0018
    1DIPC   D3B 3683  10.871  25.073   4.683 -0.1499  0.2744  0.0140
    1DIPC   C4B 3684  11.129  25.378   4.519 -0.0769  0.1031  0.0270
    1DIPC   NC3 3685  16.021   4.339   6.549 -0.0564  0.0768 -0.0322
    1DIPC   PO4 3686  16.287   4.252   6.200  0.0084 -0.2588 -0.2815
    1DIPC   GL1 3687  16.190   3.940   5.978 -0.0222  0.0885  0.2674
    1DIPC   GL2 3688  15.848   4.005   5.818  0.2026 -0.0155  0.0859
    1DIPC   C1A 3689  15.898   3.467   5.810 -0.2003  0.0495 -0.0426
    1DIPC   D2A 3690  15.842   3.182   5.387 -0.3461  0.0416  0.1685
    1DIPC   D3A 3691  16.292   3.213   5.191 -0.2250 -0.0017 -0.0913
    1DIPC   C4A 3692  16.430   3.283   4.795  0.1234 -0.0743 -0.1964
    1DIPC   C1B 3693  15.650   3.775   5.453 -0.1170 -0.0535  0.0943
    1DIPC   D2B 3694  15.364   3.897   5.241  0.1915  0.1565 -0.0574
    1DIPC   D3B 3695  15.154   3.549   5.166 -0.2536 -0.2098 -0.1488
    1DIPC   C4B 3696  14.742   3.610   5.062  0.2467  0.1750  0.0891
    1DIPC   NC3 3697   0.351  21.432   6.239 -0.0413  0.1074 -0.3696
    1DIPC   PO4 3698   0.655  21.765   6.064  0.1699  0.0108 -0.1656
    1DIPC   GL1 3699   0.599  21.741   5.666 -0.2896 -0.0866  0.0113
    1DIPC   GL2 3700   0.725  21.896   5.541 -0.1551 -0.0132  0.1800
    1DIPC   C1A 3701   0.563  21.436   5.403 -0.3104 -0.1430  0.1986
    1DIPC   D2A 3702   0.580  20.978   5.351 -0.0319 -0.0427  0.1388
    1DIPC   D3A 3703   0.976  20.790   5.167  0.0175 -0.2263 -0.0089
    1DIPC   C4A 3704   0.998  20.583   4.813 -0.3256 -0.1091 -0.2100
    1DIPC   C1B 3705   0.981  21.632   5.279  0.3317  0.2687 -0.0728
    1DIPC   D2B 3706   1.022  21.265   5.016  0.2670 -0.0312  0.2348
    1DIPC   D3B 3707   1.051  21.507   4.550  0.1498 -0.1163 -0.1898
    1DIPC   C4B 3708   0.784  21.712   4.315  0.2326  0.1029  0.0995
    1DIPC   NC3 3709   2.504  16.706   5.978  0.2730  0.2358  0.1924
    1DIPC   PO4 3710   2.555  16.245   5.978  0.0770  0.0935 -0.0754
    1DIPC   GL1 3711   2.824  16.180   5.563 -0.0274  0.2836  0.0298
    1DIPC   GL2 3712   3.174  16.079   5.422  0.0472 -0.2158  0.1620
    1DIPC   C1A 3713   2.692  16.049   5.166 -0.0196 -0.2789  0.0711
    1DIPC   D2A 3714   2.492  15.701   5.146  0.0295  0.0460  0.1286
    1DIPC   D3A 3715   2.095  15.544   5.110  0.1235  0.1380 -0.1020
    1DIPC   C4A 3716   1.952  15.067   5.009  0.0863  0.0413  0.3600
    1DIPC   C1B 3717   3.172  16.596   5.455  0.0175 -0.1740  0.0126
    1DIPC   D2B 3718   3.139  16.988   5.253 -0.1355 -0.1986 -0.0781
    1DIPC   D3B 3719   3.278  17.391   5.150  0.1566  0.1911 -0.0196
    1DIPC   C4B 3720   3.496  17.198   4.761  0.0826 -0.0264  0.1078
    1DIPC   NC3 3721  29.501  21.874   5.765 -0.1780 -0.2143 -0.0683
    1DIPC   PO4 3722  29.639  22.303   5.828 -0.0879  0.1706  0.1503
    1DIPC   GL1 3723  29.841  22.104   5.473 -0.1137 -0.2618 -0.2013
    1DIPC   GL2 3724  30.155  22.204   5.471 -0.0420  0.1470 -0.1014
    1DIPC   C1A 3725  29.780  22.211   4.979  0.1373  0.0605 -0.1821
    1DIPC   D2A 3726  30.065  22.383   4.638 -0.0623  0.1532  0.2714
    1DIPC   D3A 3727  30.401  22.499   4.986  0.1452 -0.0259 -0.2393
    1DIPC   C4A 3728  30.706  22.133   5.092 -0.0089  0.0357 -0.0437
    1DIPC   C1B 3729  30.224  21.997   5.111  0.2020 -0.0372  0.0201
    1DIPC   D2B 3730  30.117  21.840   4.763 -0.0991  0.1979 -0.1331
    1DIPC   D3B 3731  30.479  21.629   4.860 -0.1793  0.1077  0.0076
    1DIPC   C4B 3732  30.330  21.198   4.913 -0.0710 -0.1948  0.1785
    1DIPC   NC3 3733  15.856   0.247   7.091 -0.1063 -0.0459 -0.4235
    1DIPC   PO4 3734  15.676   0.033   6.713 -0.2462  0.0753 -0.0903
    1DIPC   GL1 3735  15.830  -0.189   6.390  0.2031 -0.1912  0.2122
    1DIPC   GL2 3736  15.554  -0.359   6.401  0.1646  0.1742 -0.0836
    1DIPC   C1A 3737  15.898  -0.316   5.975 -0.3780  0.2823  0.1773
    1DIPC   D2A 3738  15.984  -0.535   5.644 -0.0980 -0.2120 -0.1493
    1DIPC   D3A 3739  15.747  -0.451   5.313  0.0984 -0.2337  0.0664
    1DIPC   C4A 3740  16.051  -0.656   4.971  0.2324  0.0570 -0.2019
    1DIPC   C1B 3741  15.337  -0.134   5.996 -0.0497  0.1643 -0.0736
    1DIPC   D2B 3742  15.091   0.042   5.650  0.0114 -0.0245  0.0649
    1DIPC   D3B 3743  14.672  -0.057   5.645 -0.0635 -0.0316 -0.1405
    1DIPC   C4B 3744  14.509   0.258   5.966  0.1059 -0.0364  0.1811
    1DIPC   NC3 3745  27.410  25.253   6.719 -0.2084  0.0560 -0.4682
    1DIPC   PO4 3746  27.646  24.974   6.445 -0.0053 -0.0848  0.1218
    1DIPC   GL1 3747  27.632  25.135   6.043  0.0604  0.2361 -0.0611
    1DIPC   GL2 3748  27.911  25.291   6.021 -0.0333  0.2615 -0.5068
    1DIPC   C1A 3749  27.689  25.154   5.613  0.1825 -0.1020 -0.0562
    1DIPC   D2A 3750  28.037  25.278   5.325  0.1805 -0.1844  0.1025
    1DIPC   D3A 3751  28.227  25.660   5.270 -0.1225  0.1996 -0.0324
    1DIPC   C4A 3752  28.124  25.778   4.901  0.1164  0.0932 -0.0451
    1DIPC   C1B 3753  27.907  25.607   5.723  0.0412 -0.2983  0.2896
    1DIPC   D2B 3754  27.792  25.793   5.312  0.3267  0.1043  0.1868
    1DIPC   D3B 3755  27.690  25.485   5.026 -0.0974  0.0350  0.3602
    1DIPC   C4B 3756  27.895  25.419   4.606  0.0101 -0.0108 -0.0826
    1DIPC   NC3 3757  29.356   4.395   7.198  0.0418  0.3747 -0.0202
    1DIPC   PO4 3758  29.151   4.437   6.724 -0.0577  0.2145 -0.4491
    1DIPC   GL1 3759  29.232   4.132   6.405  0.2318  0.1734  0.0345
    1DIPC   GL2 3760  29.525   4.005   6.187  0.1645 -0.1204  0.0005
    1DIPC   C1A 3761  29.079   4.104   6.022  0.0863 -0.2537  0.0298
    1DIPC   D2A 3762  29.185   3.923   5.677  0.0771 -0.4215 -0.0032
    1DIPC   D3A 3763  29.277   4.286   5.445 -0.1941 -0.3491  0.0722
    1DIPC   C4A 3764  29.341   4.515   5.811  0.2216 -0.3100  0.2478
    1DIPC   C1B 3765  29.731   4.030   5.837 -0.0400  0.3411 -0.1920
    1DIPC   D2B 3766  29.718   4.078   5.438  0.2372  0.0728 -0.2011
    1DIPC   D3B 3767  29.583   4.142   5.048 -0.1454  0.0536 -0.0145
    1DIPC   C4B 3768  29.165   3.993   4.983 -0.4268 -0.2215  0.0086
    1DIPC   NC3 3769  21.105   9.057   6.155 -0.1257 -0.0978  0.0928
    1DIPC   PO4 3770  21.450   9.143   6.393 -0.0671 -0.0120 -0.0159
    1DIPC   GL1 3771  21.671   9.077   5.963 -0.1206  0.0439  0.3242
    1DIPC   GL2 3772  21.471   9.142   5.714 -0.1450  0.2084 -0.2351
    1DIPC   C1A 3773  21.959   9.172   5.570  0.1615  0.1759 -0.0633
    1DIPC   D2A 3774  21.971   9.699   5.537  0.2570 -0.0632 -0.0305
    1DIPC   D3A 3775  21.842   9.441   5.119  0.1760 -0.0559  0.0614
    1DIPC   C4A 3776  21.603   9.013   5.276 -0.0293  0.1430  0.1740
    1DIPC   C1B 3777  21.395   9.471   5.439 -0.0956 -0.2241  0.2101
    1DIPC   D2B 3778  21.424   9.857   5.294  0.1940  0.0731 -0.0933
    1DIPC   D3B 3779  21.811   9.972   4.996  0.0429  0.3157  0.1539
    1DIPC   C4B 3780  21.666  10.069   4.493 -0.1220  0.0253 -0.1986
    1DIPC   NC3 3781  11.030  26.042   6.884 -0.0885  0.1365  0.0563
    1DIPC   PO4 3782  11.381  26.164   6.605 -0.0146 -0.2882  0.1868
    1DIPC   GL1 3783  11.363  26.272   6.116  0.1265  0.0506 -0.4162
    1DIPC   GL2 3784  11.487  26.029   5.878  0.3904 -0.0961  0.0023
    1DIPC   C1A 3785  11.121  26.510   5.867 -0.0246  0.1190  0.1743
    1DIPC   D2A 3786  11.001  26.490   5.423  0.0331 -0.1203  0.1617
    1DIPC   D3A 3787  11.388  26.236   5.383  0.0348 -0.0379 -0.0308
    1DIPC   C4A 3788  11.732  26.370   5.185 -0.0074  0.3412  0.0430
    1DIPC   C1B 3789  11.802  26.220   5.661 -0.2730  0.3390 -0.1725
    1DIPC   D2B 3790  12.136  26.238   5.665  0.0132 -0.1203 -0.0689
    1DIPC   D3B 3791  12.024  26.724   5.389 -0.1477 -0.0614  0.1229
    1DIPC   C4B 3792  11.722  26.901   5.069  0.0663  0.0442  0.0945
    1DIPC   NC3 3793  10.052   0.603   7.377  0.0459  0.0254  0.0211
    1DIPC   PO4 3794   9.751   0.838   7.127  0.2372  0.3071  0.1019
    1DIPC   GL1 3795   9.943   0.600   6.817  0.2292 -0.0465 -0.0828
    1DIPC   GL2 3796  10.362   0.551   6.749 -0.1647  0.2035 -0.0418
    1DIPC   C1A 3797  10.202   0.426   6.262  0.2975 -0.0755 -0.3745
    1DIPC   D2A 3798  10.296   0.394   5.767  0.1409 -0.3000 -0.0701
    1DIPC   D3A 3799  10.416   0.095   5.426  0.0911 -0.1329  0.1521
    1DIPC   C4A 3800  10.399   0.259   5.026 -0.0188 -0.3264 -0.0753
    1DIPC   C1B 3801  10.488   0.810   6.414  0.0503 -0.0989  0.3016
    1DIPC   D2B 3802  10.490   0.861   5.941  0.1962 -0.2199  0.1204
    1DIPC   D3B 3803  10.864   0.845   5.729  0.0233 -0.0122  0.1410
    1DIPC   C4B 3804  10.899   1.108   5.335 -0.0141  0.0932  0.0284
    1DIPC   NC3 3805  28.634   0.760   6.631  0.0689  0.1791 -0.0378
    1DIPC   PO4 3806  28.321   0.454   6.481 -0.0676 -0.0423  0.2100
    1DIPC   GL1 3807  28.178   0.396   6.072 -0.1205 -0.1227  0.1248
    1DIPC   GL2 3808  27.878   0.373   6.109 -0.1425  0.0636 -0.5545
    1DIPC   C1A 3809  28.290   0.148   5.738  0.1041 -0.0921  0.0228
    1DIPC   D2A 3810  28.646   0.039   5.625  0.0541 -0.0338 -0.0913
    1DIPC   D3A 3811  28.554  -0.132   5.261  0.0150 -0.0214  0.1457
    1DIPC   C4A 3812  28.595  -0.585   5.141 -0.0417  0.0910  0.0448
    1DIPC   C1B 3813  27.770   0.221   5.716 -0.0581  0.1751  0.2156
    1DIPC   D2B 3814  27.777   0.159   5.225 -0.1412 -0.1057 -0.2712
    1DIPC   D3B 3815  27.658  -0.136   4.980 -0.0530 -0.0618 -0.1616
    1DIPC   C4B 3816  27.842  -0.444   4.628  0.1667 -0.1726 -0.0803
    1DIPC   NC3 3817  22.395  28.274   6.699 -0.0973  0.0994 -0.0218
    1DIPC   PO4 3818  22.481  27.821   6.635  0.1128  0.1162  0.4112
    1DIPC   GL1 3819  22.461  28.069   6.291  0.1341 -0.2260  0.1929
    1DIPC   GL2 3820  22.253  28.342   6.250 -0.0392 -0.1640  0.1563
    1DIPC   C1A 3821  22.768  28.230   5.986 -0.1770  0.0134  0.0228
    1DIPC   D2A 3822  23.071  28.371   5.700 -0.2974  0.2549  0.1825
    1DIPC   D3A 3823  22.906  28.290   5.231  0.1275  0.0244 -0.1215
    1DIPC   C4A 3824  23.228  28.119   4.919 -0.1737  0.3424  0.1372
    1DIPC   C1B 3825  22.104  28.594   5.917  0.2239  0.2219  0.0751
    1DIPC   D2B 3826  22.241  28.752   5.532  0.4458 -0.1993 -0.1662
    1DIPC   D3B 3827  22.419  28.398   5.206  0.4200  0.0578  0.0330
    1DIPC   C4B 3828  22.202  28.309   4.899 -0.1563 -0.1300  0.0871
    1DIPC   NC3 3829  21.500  10.321   6.516  0.0164 -0.1109 -0.0724
    1DIPC   PO4 3830  21.782  10.628   6.271 -0.2160  0.1870  0.0641
    1DIPC   GL1 3831  21.826  10.552   5.756 -0.0916 -0.0012 -0.1745
    1DIPC   GL2 3832  21.547  10.738   5.581  0.1549 -0.2492  0.0580
    1DIPC   C1A 3833  22.047  10.261   5.532  0.1922 -0.1124  0.1087
    1DIPC   D2A 3834  22.318  10.012   5.219 -0.0040  0.0119  0.1618
    1DIPC   D3A 3835  22.244  10.065   4.758 -0.1803  0.0536  0.3544
    1DIPC   C4A 3836  22.410   9.799   4.419 -0.1296 -0.1634 -0.1803
    1DIPC   C1B 3837  21.691  10.409   5.258 -0.4659  0.0339  0.1383
    1DIPC   D2B 3838  21.723  10.450   4.799 -0.0374  0.0979  0.0225
    1DIPC   D3B 3839  21.757  10.560   4.288  0.1496  0.0537 -0.1978
    1DIPC   C4B 3840  21.664  10.225   3.937  0.1203  0.2083  0.0980
    1DIPC   NC3 3841  26.910   1.490   7.114  0.1439  0.0332  0.1238
    1DIPC   PO4 3842  26.909   1.540   6.643 -0.0638  0.0636  0.0924
    1DIPC   GL1 3843  27.052   1.448   6.307  0.2029 -0.0559 -0.1767
    1DIPC   GL2 3844  27.205   1.543   6.049  0.1329 -0.1325 -0.1061
    1DIPC   C1A 3845  27.266   1.058   5.965 -0.0379  0.1750 -0.1855
    1DIPC   D2A 3846  27.459   1.159   5.606  0.0341 -0.0397 -0.2443
    1DIPC   D3A 3847  27.357   1.462   5.164 -0.1799 -0.2333  0.0189
    1DIPC   C4A 3848  27.740   1.783   5.019 -0.1120  0.1408  0.0173
    1DIPC   C1B 3849  27.100   1.475   5.575 -0.2533  0.2261  0.2825
    1DIPC   D2B 3850  26.847   1.511   5.202 -0.0760  0.1778 -0.2569
    1DIPC   D3B 3851  26.801   1.327   4.852  0.0321 -0.1163 -0.1485
    1DIPC   C4B 3852  27.215   1.305   4.551 -0.2094  0.1301  0.2193
    1DIPC   NC3 3853  15.773  27.921   7.207  0.0106 -0.2290  0.0456
    1DIPC   PO4 3854  15.775  27.588   6.870 -0.1439  0.3619 -0.1384
    1DIPC   GL1 3855  15.903  27.704   6.535  0.1953  0.0535  0.0105
    1DIPC   GL2 3856  15.757  27.489   6.359  0.1040 -0.0610 -0.2587
    1DIPC   C1A 3857  16.020  27.861   6.054  0.0247 -0.2439 -0.2057
    1DIPC   D2A 3858  16.094  27.853   5.603 -0.0307 -0.0573  0.0579
    1DIPC   D3A 3859  16.389  28.117   5.655 -0.2100  0.2287  0.0852
    1DIPC   C4A 3860  16.835  28.026   5.511 -0.0437  0.1732  0.0588
    1DIPC   C1B 3861  15.577  27.407   5.868 -0.1462  0.1805 -0.0161
    1DIPC   D2B 3862  15.657  27.563   5.478  0.0226 -0.1166 -0.1876
    1DIPC   D3B 3863  15.623  27.188   5.279 -0.1944 -0.1707  0.0650
    1DIPC   C4B 3864  15.962  26.859   5.153 -0.1447  0.0603  0.0380
    1DIPC   NC3 3865   5.273   0.814   7.327 -0.3241 -0.0368 -0.1622
    1DIPC   PO4 3866   5.010   0.933   6.915  0.1139  0.2077  0.2142
    1DIPC   GL1 3867   5.383   0.988   6.715  0.1911  0.0272 -0.1303
    1DIPC   GL2 3868   5.609   0.949   6.921 -0.1682 -0.0745 -0.1201
    1DIPC   C1A 3869   5.687   1.153   6.396 -0.1396 -0.2078 -0.2493
    1DIPC   D2A 3870   6.108   1.292   6.379 -0.3727  0.1683  0.0169
    1DIPC   D3A 3871   5.920   1.666   6.407 -0.0127 -0.0704  0.0046
    1DIPC   C4A 3872   5.808   1.535   6.842 -0.0075  0.0553  0.1680
    1DIPC   C1B 3873   5.759   0.743   6.570 -0.0080  0.1238  0.1946
    1DIPC   D2B 3874   6.185   0.810   6.354 -0.0210 -0.0849 -0.1930
    1DIPC   D3B 3875   6.384   1.110   6.051 -0.1027  0.0412  0.1252
    1DIPC   C4B 3876   6.415   0.841   5.729 -0.1849  0.4553  0.2782
    1DIPC   NC3 3877   5.270  14.371   5.690  0.2608 -0.0309  0.1859
    1DIPC   PO4 3878   5.367  14.771   5.706 -0.0205  0.0177  0.1742
    1DIPC   GL1 3879   5.416  14.644   5.329 -0.2010 -0.2179 -0.1333
    1DIPC   GL2 3880   5.056  14.674   5.242  0.2882 -0.0941  0.1628
    1DIPC   C1A 3881   5.392  14.330   4.964 -0.2946 -0.3306 -0.0830
    1DIPC   D2A 3882   5.540  13.985   4.793 -0.1938 -0.0119  0.3566
    1DIPC   D3A 3883   5.926  13.846   4.966 -0.2260 -0.1224 -0.1456
    1DIPC   C4A 3884   5.943  13.374   4.965  0.1886  0.0678  0.0805
    1DIPC   C1B 3885   5.195  14.911   4.944  0.0980 -0.0654 -0.1079
    1DIPC   D2B 3886   5.489  14.747   4.537 -0.3119 -0.0389 -0.3274
    1DIPC   D3B 3887   5.892  14.746   4.405 -0.3078 -0.1542  0.0596
    1DIPC   C4B 3888   6.169  14.910   4.310  0.0250  0.1243  0.3230
    1DIPC   NC3 3889  22.555   6.257   6.831  0.2208  0.1144  0.0089
    1DIPC   PO4 3890  22.341   5.988   6.534  0.0633 -0.0403 -0.0102
    1DIPC   GL1 3891  22.360   6.147   6.119 -0.2451  0.2685  0.0251
    1DIPC   GL2 3892  22.163   6.005   5.822 -0.0973  0.1218 -0.2451
    1DIPC   C1A 3893  22.401   6.471   5.881  0.1068 -0.2158  0.1509
    1DIPC   D2A 3894  22.370   6.921   5.846  0.0051 -0.0353  0.1443
    1DIPC   D3A 3895  22.772   6.858   5.647  0.0197 -0.1315  0.1282
    1DIPC   C4A 3896  23.133   6.925   5.822  0.1666  0.1259 -0.0806
    1DIPC   C1B 3897  21.800   5.922   5.587 -0.1180 -0.1888 -0.0843
    1DIPC   D2B 3898  21.517   5.789   5.293  0.0809  0.0149 -0.0689
    1DIPC   D3B 3899  21.341   5.957   4.936  0.1408  0.0982  0.0234
    1DIPC   C4B 3900  20.951   6.067   4.823 -0.1133  0.1317  0.0828
    1DIPC   NC3 3901   4.710   3.537   7.205  0.0956 -0.1081  0.1594
    1DIPC   PO4 3902   5.079   3.356   6.969 -0.0740  0.4648 -0.2377
    1DIPC   GL1 3903   5.496   3.342   6.680  0.1003 -0.2332  0.1713
    1DIPC   GL2 3904   5.844   3.477   6.520  0.0779 -0.0314 -0.2367
    1DIPC   C1A 3905   5.453   3.127   6.302  0.0877 -0.0476 -0.2104
    1DIPC   D2A 3906   5.314   3.278   5.945 -0.0778  0.0097 -0.0604
    1DIPC   D3A 3907   4.879   3.294   5.750 -0.0070  0.4048  0.2491
    1DIPC   C4A 3908   4.932   3.302   5.330  0.1408 -0.0944 -0.0530
    1DIPC   C1B 3909   6.011   3.852   6.585 -0.1328 -0.0130  0.0685
    1DIPC   D2B 3910   6.335   4.146   6.648  0.0025 -0.0558 -0.0524
    1DIPC   D3B 3911   6.550   3.985   6.293 -0.2196  0.0969  0.0426
    1DIPC   C4B 3912   6.530   3.976   5.887  0.1754  0.2802  0.2118
    1DIPC   NC3 3913  27.111   4.982   6.421 -0.0902  0.0052  0.0176
    1DIPC   PO4 3914  26.816   4.591   6.530  0.4735  0.1896  0.2600
    1DIPC   GL1 3915  26.856   4.462   6.181 -0.1284  0.1040 -0.0559
    1DIPC   GL2 3916  26.873   4.743   6.000  0.0073 -0.3597  0.1984
    1DIPC   C1A 3917  26.810   4.181   5.819 -0.3429  0.1605 -0.0340
    1DIPC   D2A 3918  26.809   3.967   5.495 -0.1234 -0.1575  0.1955
    1DIPC   D3A 3919  26.804   4.346   5.296 -0.0016  0.4532 -0.2885
    1DIPC   C4A 3920  27.248   4.395   5.035 -0.0692  0.2759  0.0617
    1DIPC   C1B 3921  26.884   4.784   5.558 -0.1185  0.1324 -0.2963
    1DIPC   D2B 3922  27.213   4.934   5.175  0.2566 -0.5198 -0.2536
    1DIPC   D3B 3923  27.359   5.312   5.123  0.0826 -0.2551  0.0144
    1DIPC   C4B 3924  27.768   5.591   5.250 -0.0309  0.0817 -0.0997
    1DIPC   NC3 3925   1.563  23.538   5.660 -0.1108  0.0442  0.0843
    1DIPC   PO4 3926   1.516  23.086   5.759 -0.2235  0.1438 -0.0008
    1DIPC   GL1 3927   1.430  23.140   5.249  0.1878 -0.0552  0.2467
    1DIPC   GL2 3928   1.582  23.295   5.032  0.3111 -0.3368 -0.1227
    1DIPC   C1A 3929   1.448  22.892   4.843 -0.0804  0.0947 -0.1611
    1DIPC   D2A 3930   1.093  22.553   4.802 -0.3139  0.2279  0.2221
    1DIPC   D3A 3931   0.856  22.098   4.579 -0.1348  0.0572  0.1403
    1DIPC   C4A 3932   0.495  22.114   4.288  0.1066  0.0329 -0.3241
    1DIPC   C1B 3933   1.884  23.397   4.704  0.1194 -0.1843 -0.0883
    1DIPC   D2B 3934   2.040  23.543   4.275  0.1121 -0.1470 -0.1313
    1DIPC   D3B 3935   2.350  23.360   3.990 -0.0233 -0.0667  0.0040
    1DIPC   C4B 3936   2.437  22.880   4.076 -0.0631 -0.2897  0.0077
    1DIPC   NC3 3937   9.414  21.244   6.017  0.1551  0.0734  0.0339
    1DIPC   PO4 3938   9.026  21.588   5.839 -0.1488  0.2274 -0.0969
    1DIPC   GL1 3939   9.032  21.266   5.629  0.1378 -0.1661  0.4450
    1DIPC   GL2 3940   8.670  21.313   5.479 -0.3322  0.0876 -0.0470
    1DIPC   C1A 3941   9.084  20.900   5.342  0.2016  0.0132  0.0906
    1DIPC   D2A 3942   9.275  20.716   4.900 -0.1748  0.0863  0.1643
    1DIPC   D3A 3943   9.276  20.907   4.453  0.1344  0.2325 -0.2870
    1DIPC   C4A 3944   9.027  20.993   4.220 -0.1762 -0.1998  0.0683
    1DIPC   C1B 3945   8.812  21.397   5.158 -0.2857  0.1880  0.0904
    1DIPC   D2B 3946   8.969  21.137   4.822 -0.0174  0.0447 -0.0551
    1DIPC   D3B 3947   8.719  21.272   4.490  0.0503  0.1504 -0.0044
    1DIPC   C4B 3948   8.838  21.644   4.261  0.1145 -0.3252  0.0424
    1DIPC   NC3 3949   8.395   0.892   7.084  0.0983 -0.0004 -0.2495
    1DIPC   PO4 3950   8.752   0.895   7.308 -0.1471  0.2424  0.3700
    1DIPC   GL1 3951   8.840   0.953   6.871  0.0806  0.0916 -0.2215
    1DIPC   GL2 3952   8.668   0.609   6.724 -0.0575  0.1892 -0.2694
    1DIPC   C1A 3953   9.038   0.879   6.444 -0.0122 -0.2717 -0.3065
    1DIPC   D2A 3954   9.447   0.925   6.215  0.1360  0.3090  0.1300
    1DIPC   D3A 3955   9.412   1.068   5.756  0.1315  0.1306 -0.1282
    1DIPC   C4A 3956   9.723   1.082   5.501 -0.1514  0.0601  0.0565
    1DIPC   C1B 3957   8.344   0.769   6.398  0.0203 -0.1462  0.1436
    1DIPC   D2B 3958   8.081   1.055   6.257  0.2091 -0.1284 -0.0257
    1DIPC   D3B 3959   7.827   0.836   5.987 -0.1414 -0.2002  0.3119
    1DIPC   C4B 3960   7.669   0.872   5.664 -0.1258  0.1330  0.0117
    1DIPC   NC3 3961  11.794  28.743   7.536  0.1400  0.2313  0.0923
    1DIPC   PO4 3962  12.275  28.512   7.357  0.1404 -0.2478  0.1300
    1DIPC   GL1 3963  12.484  28.805   6.976  0.0248  0.2835  0.3501
    1DIPC   GL2 3964  12.516  29.129   6.897  0.0263  0.3493  0.0223
    1DIPC   C1A 3965  12.420  28.686   6.600  0.0564 -0.2136  0.1907
    1DIPC   D2A 3966  12.363  28.719   6.202 -0.0883 -0.0274 -0.0677
    1DIPC   D3A 3967  12.395  28.861   5.761  0.0448 -0.2422 -0.4576
    1DIPC   C4A 3968  12.784  28.945   5.613 -0.3099  0.1249  0.2274
    1DIPC   C1B 3969  12.479  29.146   6.430  0.2159 -0.0062 -0.0292
    1DIPC   D2B 3970  12.158  29.196   6.077  0.1812 -0.1361 -0.1586
    1DIPC   D3B 3971  11.967  29.241   5.669 -0.2169  0.1329 -0.2763
    1DIPC   C4B 3972  12.216  29.119   5.382 -0.0083 -0.1450  0.1193
    1DIPC   NC3 3973   9.746   7.003   7.367 -0.0369  0.0955 -0.0592
    1DIPC   PO4 3974   9.795   7.428   7.599  0.1097  0.1164 -0.0553
    1DIPC   GL1 3975   9.879   7.597   7.209 -0.0935 -0.2428  0.1700
    1DIPC   GL2 3976   9.788   7.387   7.003  0.0448 -0.0038 -0.1498
    1DIPC   C1A 3977   9.892   7.808   6.843 -0.2611 -0.0032 -0.0033
    1DIPC   D2A 3978   9.519   7.834   6.827 -0.2499  0.1692 -0.0256
    1DIPC   D3A 3979   9.414   8.202   6.855  0.2742 -0.0405  0.3677
    1DIPC   C4A 3980   9.695   8.510   6.925 -0.2816 -0.0205  0.0709
    1DIPC   C1B 3981   9.804   7.398   6.525 -0.0242 -0.0458  0.0894
    1DIPC   D2B 3982   9.877   7.379   6.092  0.2606  0.1784  0.1302
    1DIPC   D3B 3983   9.931   7.810   6.127  0.1916  0.0312 -0.3168
    1DIPC   C4B 3984  10.337   8.034   6.011  0.2586  0.0214  0.2428
    1DIPC   NC3 3985  27.172   2.818   6.201  0.1665  0.0221 -0.0378
    1DIPC   PO4 3986  26.950   3.108   6.042  0.0913  0.1181  0.2706
    1DIPC   GL1 3987  26.961   2.976   5.610 -0.0466  0.4300 -0.1308
    1DIPC   GL2 3988  27.145   2.729   5.713  0.1415  0.2161 -0.0244
    1DIPC   C1A 3989  26.688   2.887   5.295  0.1099 -0.2398  0.1587
    1DIPC   D2A 3990  26.384   2.737   5.164 -0.1737 -0.1154  0.0787
    1DIPC   D3A 3991  26.148   3.079   5.319 -0.1607  0.0106 -0.2472
    1DIPC   C4A 3992  25.688   3.097   5.343 -0.2918  0.4125  0.1086
    1DIPC   C1B 3993  27.291   2.311   5.521 -0.1705 -0.0012  0.1935
    1DIPC   D2B 3994  27.514   1.867   5.493  0.1495 -0.3168  0.2202
    1DIPC   D3B 3995  27.109   1.923   5.221  0.2221 -0.0504  0.2615
    1DIPC   C4B 3996  27.065   1.735   4.835  0.2615  0.1730 -0.1374
    1DIPC   NC3 3997  19.162  23.828   7.394 -0.1268  0.0697 -0.0688
    1DIPC   PO4 3998  19.384  23.931   6.963  0.3925 -0.0688 -0.1837
    1DIPC   GL1 3999  19.624  23.650   6.676 -0.2125 -0.2905 -0.1052
    1DIPC   GL2 4000  19.915  23.403   6.781 -0.2653 -0.2103  0.1354
    1DIPC   C1A 4001  19.686  23.453   6.271 -0.0777  0.2069 -0.2406
    1DIPC   D2A 4002  19.945  23.258   5.965  0.0310  0.1034  0.0797
    1DIPC   D3A 4003  19.786  23.258   5.492  0.2189  0.0717 -0.0791
    1DIPC   C4A 4004  19.749  22.906   5.203  0.1540  0.0870  0.0983
    1DIPC   C1B 4005  19.446  23.183   6.734 -0.0877  0.1810 -0.2554
    1DIPC   D2B 4006  19.103  23.408   6.674 -0.2990 -0.1761  0.0517
    1DIPC   D3B 4007  19.177  23.325   6.291 -0.2451 -0.1011  0.1614
    1DIPC   C4B 4008  18.917  23.438   5.969  0.0675 -0.0124 -0.0336
    1DIPC   NC3 4009   6.135  19.269   5.789 -0.0025  0.0861 -0.0512
    1DIPC   PO4 4010   6.421  18.955   5.718  0.0324 -0.1907 -0.1965
    1DIPC   GL1 4011   6.785  18.848   5.475 -0.2920 -0.1030  0.0689
    1DIPC   GL2 4012   6.791  18.536   5.314 -0.2770 -0.3776 -0.0012
    1DIPC   C1A 4013   7.165  18.956   5.216 -0.0202 -0.3572  0.0345
    1DIPC   D2A 4014   7.412  18.772   4.919 -0.3039  0.0629  0.2056
    1DIPC   D3A 4015   7.085  18.467   4.689 -0.0511 -0.1163  0.0610
    1DIPC   C4A 4016   7.264  18.053   4.739 -0.0438 -0.0109 -0.1545
    1DIPC   C1B 4017   6.765  18.730   4.978  0.0614 -0.0708 -0.2767
    1DIPC   D2B 4018   6.996  18.928   4.636  0.2173 -0.2518  0.0202
    1DIPC   D3B 4019   7.270  19.220   4.785  0.0432  0.3576 -0.0438
    1DIPC   C4B 4020   7.555  19.194   4.500 -0.1445  0.0823  0.0533
    1DIPC   NC3 4021  17.136   2.355   6.928  0.5105  0.1620 -0.0765
    1DIPC   PO4 4022  17.052   2.337   6.465  0.1539  0.1507  0.0768
    1DIPC   GL1 4023  16.888   2.414   6.044  0.0631 -0.0596  0.2242
    1DIPC   GL2 4024  16.635   2.272   5.886 -0.1989 -0.1731 -0.0118
    1DIPC   C1A 4025  17.145   2.422   5.782 -0.0762  0.0651  0.2904
    1DIPC   D2A 4026  17.428   2.353   5.476  0.0734  0.1480 -0.0190
    1DIPC   D3A 4027  17.477   2.471   5.108 -0.2275 -0.3548  0.3672
    1DIPC   C4A 4028  17.136   2.201   4.797 -0.0243  0.0384 -0.0030
    1DIPC   C1B 4029  16.575   1.891   5.606  0.0983  0.2818 -0.0260
    1DIPC   D2B 4030  16.724   1.981   5.197 -0.0331 -0.1223 -0.2891
    1DIPC   D3B 4031  16.991   2.382   5.210  0.2054 -0.1479  0.0227
    1DIPC   C4B 4032  16.763   2.608   5.504 -0.0937 -0.3664  0.0265
    1DIPC   NC3 4033  23.888   9.168   6.306  0.0689 -0.2684 -0.0036
    1DIPC   PO4 4034  24.264   9.314   6.374  0.0455 -0.1155  0.2963
    1DIPC   GL1 4035  24.343   9.300   5.987 -0.1694 -0.3636 -0.1204
    1DIPC   GL2 4036  24.127   9.035   5.893  0.2053 -0.0260 -0.0162
    1DIPC   C1A 4037  24.478   9.285   5.617  0.3228  0.1886  0.0248
    1DIPC   D2A 4038  24.648   9.385   5.355 -0.0983  0.0375  0.3144
    1DIPC   D3A 4039  24.394   9.124   5.142  0.2365  0.0238  0.1640
    1DIPC   C4A 4040  24.323   9.286   4.743 -0.0526  0.2053  0.2200
    1DIPC   C1B 4041  23.960   9.203   5.421 -0.1100 -0.2126 -0.2239
    1DIPC   D2B 4042  23.749   9.394   5.179  0.0197  0.3448 -0.3338
    1DIPC   D3B 4043  23.842   9.086   4.919  0.1259 -0.2358 -0.2194
    1DIPC   C4B 4044  23.478   8.812   4.834  0.3775 -0.2154  0.0766
    1DIPC   NC3 4045  27.945   8.181   6.234  0.0511 -0.0317 -0.0981
    1DIPC   PO4 4046  27.398   8.344   6.137 -0.0060 -0.0742  0.1140
    1DIPC   GL1 4047  27.477   8.114   5.724  0.3453 -0.3092 -0.1448
    1DIPC   GL2 4048  27.705   8.015   5.835  0.0123  0.1794 -0.2698
    1DIPC   C1A 4049  27.619   8.078   5.294  0.1148  0.0073  0.0796
    1DIPC   D2A 4050  27.889   7.818   5.067 -0.1374 -0.0943  0.0927
    1DIPC   D3A 4051  27.555   7.609   4.686  0.2160 -0.0008 -0.0337
    1DIPC   C4A 4052  27.243   7.372   4.745 -0.0493 -0.1186  0.0208
    1DIPC   C1B 4053  28.035   8.205   5.521 -0.3673 -0.2651 -0.0715
    1DIPC   D2B 4054  28.289   8.610   5.411  0.0020  0.0349  0.1162
    1DIPC   D3B 4055  28.301   8.440   5.010 -0.0264 -0.0550  0.0174
    1DIPC   C4B 4056  28.288   7.989   4.907 -0.0998  0.0304  0.2840
    1DIPC   NC3 4057   0.301  20.120   6.033  0.0633 -0.1515  0.2498
    1DIPC   PO4 4058  -0.124  20.408   6.017 -0.0914 -0.7000 -0.1757
    1DIPC   GL1 4059  -0.303  20.541   5.590 -0.4975  0.0632  0.0526
    1DIPC   GL2 4060  -0.268  20.813   5.613 -0.0181  0.0900  0.1142
    1DIPC   C1A 4061  -0.144  20.422   5.208 -0.3441  0.1232  0.2507
    1DIPC   D2A 4062  -0.226  20.241   4.848  0.0192  0.1108  0.0669
    1DIPC   D3A 4063   0.056  20.436   4.652  0.1264 -0.1142 -0.0854
    1DIPC   C4A 4064   0.066  20.768   4.306 -0.3801  0.3468 -0.0407
    1DIPC   C1B 4065  -0.310  21.173   5.322 -0.0960 -0.0548 -0.1503
    1DIPC   D2B 4066  -0.394  21.272   4.891  0.2574 -0.1368 -0.1817
    1DIPC   D3B 4067  -0.671  21.349   4.936  0.1854 -0.2155 -0.2361
    1DIPC   C4B 4068  -0.870  21.565   4.600  0.0243 -0.1783  0.1152
    1DIPC   NC3 4069  11.007   3.703   7.726 -0.1900 -0.0087  0.2740
    1DIPC   PO4 4070  11.442   3.452   7.522  0.2248 -0.1801 -0.3738
    1DIPC   GL1 4071  11.206   3.534   7.065 -0.1549  0.1884 -0.0171
    1DIPC   GL2 4072  11.204   3.785   6.961 -0.2732 -0.0579  0.1153
    1DIPC   C1A 4073  11.242   3.389   6.661  0.2016 -0.2912  0.0202
    1DIPC   D2A 4074  11.222   3.529   6.173  0.2548 -0.3969  0.1767
    1DIPC   D3A 4075  11.419   3.323   6.017  0.1577 -0.2763 -0.0503
    1DIPC   C4A 4076  11.752   3.625   5.742 -0.0754 -0.1207  0.1549
    1DIPC   C1B 4077  11.322   3.920   6.616  0.4744  0.0480 -0.2565
    1DIPC   D2B 4078  11.140   4.041   6.265 -0.1230 -0.1450  0.2182
    1DIPC   D3B 4079  11.303   4.324   6.000  0.0337 -0.1619 -0.0518
    1DIPC   C4B 4080  11.162   4.255   5.633 -0.1737 -0.3509  0.0011
    1DIPC   NC3 4081   7.372   2.915   7.857  0.1356 -0.0032 -0.0241
    1DIPC   PO4 4082   7.700   2.694   7.527 -0.0201 -0.0512 -0.1694
    1DIPC   GL1 4083   7.940   2.685   7.178  0.1889  0.1355 -0.3172
    1DIPC   GL2 4084   7.939   2.424   6.993 -0.2542  0.0715 -0.1056
    1DIPC   C1A 4085   8.246   2.903   6.899  0.1582 -0.0949  0.1642
    1DIPC   D2A 4086   8.257   2.705   6.466  0.0052 -0.4001 -0.0315
    1DIPC   D3A 4087   7.991   2.846   6.156  0.2857  0.2757 -0.2132
    1DIPC   C4A 4088   7.917   2.742   5.736 -0.1642 -0.2451 -0.1990
    1DIPC   C1B 4089   7.827   2.649   6.656 -0.1159  0.0488 -0.2002
    1DIPC   D2B 4090   7.578   2.823   6.391  0.1458 -0.1398 -0.0634
    1DIPC   D3B 4091   7.312   2.571   6.092  0.1308 -0.0296 -0.1280
    1DIPC   C4B 4092   7.606   2.365   5.918  0.3062  0.2000 -0.0930
    1DIPC   NC3 4093  13.547   7.667   7.134 -0.3147 -0.1342  0.1056
    1DIPC   PO4 4094  13.427   7.792   6.800 -0.0519  0.3382  0.1156
    1DIPC   GL1 4095  13.450   7.588   6.404 -0.0241 -0.0090 -0.1223
    1DIPC   GL2 4096  13.299   7.312   6.344 -0.0482  0.1759 -0.1292
    1DIPC   C1A 4097  13.478   7.689   6.009 -0.0240 -0.0183  0.0014
    1DIPC   D2A 4098  13.390   7.902   5.546 -0.1314 -0.3316  0.2041
    1DIPC   D3A 4099  12.980   7.665   5.476 -0.1760  0.0667 -0.2550
    1DIPC   C4A 4100  12.706   7.520   5.231 -0.1212  0.0035  0.0927
    1DIPC   C1B 4101  13.155   7.319   5.893 -0.1508 -0.0606  0.4338
    1DIPC   D2B 4102  13.029   7.120   5.430  0.1334  0.0012  0.0134
    1DIPC   D3B 4103  13.400   6.958   5.490 -0.0097  0.1361 -0.1888
    1DIPC   C4B 4104  13.587   6.694   5.799  0.1573  0.1096  0.1063
    1DIPC   NC3 4105  15.823  29.086   6.607 -0.1246  0.3290  0.1159
    1DIPC   PO4 4106  15.781  28.649   6.766 -0.3931  0.0403 -0.2544
    1DIPC   GL1 4107  15.634  28.435   6.481 -0.2315  0.0596 -0.1073
    1DIPC   GL2 4108  15.353  28.590   6.364  0.0008  0.0716  0.1593
    1DIPC   C1A 4109  15.838  28.498   6.080  0.0637 -0.0263  0.1777
    1DIPC   D2A 4110  16.107  28.528   5.705  0.1764  0.4383 -0.3282
    1DIPC   D3A 4111  16.085  28.334   5.266 -0.1014 -0.0427  0.0580
    1DIPC   C4A 4112  16.500  28.038   5.114 -0.0800 -0.3395 -0.0668
    1DIPC   C1B 4113  15.269  28.610   5.979 -0.1652 -0.1478 -0.1941
    1DIPC   D2B 4114  15.232  28.581   5.546 -0.1319  0.4127  0.0682
    1DIPC   D3B 4115  15.140  28.977   5.663 -0.3275 -0.4593 -0.4884
    1DIPC   C4B 4116  15.007  29.317   5.865 -0.0820 -0.0216  0.1575
    1DIPC   NC3 4117   2.929  19.895   6.235  0.1254  0.2561  0.3690
    1DIPC   PO4 4118   2.975  19.475   6.086  0.3414  0.0488  0.2768
    1DIPC   GL1 4119   3.241  19.745   5.770 -0.2306  0.1650 -0.1859
    1DIPC   GL2 4120   3.060  19.912   5.731 -0.1473 -0.1037 -0.1467
    1DIPC   C1A 4121   3.582  19.975   5.443  0.1674  0.0676 -0.0595
    1DIPC   D2A 4122   3.656  20.428   5.385 -0.0616  0.1524  0.2545
    1DIPC   D3A 4123   4.079  20.268   5.275 -0.0616  0.1496  0.1140
    1DIPC   C4A 4124   4.340  20.667   5.213 -0.1212  0.3942 -0.0970
    1DIPC   C1B 4125   3.073  19.952   5.312 -0.0999  0.0718 -0.0624
    1DIPC   D2B 4126   3.355  19.707   5.031 -0.0781  0.1618  0.0563
    1DIPC   D3B 4127   3.413  19.504   5.345 -0.0717 -0.3472  0.0045
    1DIPC   C4B 4128   3.183  19.147   5.436  0.2755 -0.0362  0.2930
    1DIPC   NC3 4129  12.656   5.682   7.241 -0.0978  0.0102 -0.0570
    1DIPC   PO4 4130  13.051   5.898   7.237  0.0332 -0.0319 -0.0215
    1DIPC   GL1 4131  13.041   5.453   6.948 -0.0415 -0.2465 -0.0272
    1DIPC   GL2 4132  13.299   5.416   6.678 -0.1303 -0.0536 -0.1285
    1DIPC   C1A 4133  12.974   5.082   6.679  0.2708  0.0115 -0.2673
    1DIPC   D2A 4134  12.532   4.858   6.694  0.2797  0.4400  0.2596
    1DIPC   D3A 4135  12.757   4.655   6.301 -0.0425 -0.3564  0.4071
    1DIPC   C4A 4136  12.428   4.466   6.010 -0.0509  0.0496  0.3167
    1DIPC   C1B 4137  13.225   5.322   6.212  0.1604 -0.0587  0.1746
    1DIPC   D2B 4138  12.874   5.127   6.153  0.3302  0.1475 -0.0962
    1DIPC   D3B 4139  12.495   5.046   6.247 -0.1635  0.0181  0.2198
    1DIPC   C4B 4140  12.134   5.121   6.039  0.2430  0.1360  0.0741
    1DIPC   NC3 4141  26.423  17.362   6.214 -0.1767 -0.1537 -0.4039
    1DIPC   PO4 4142  26.597  17.021   6.081  0.0642  0.1561  0.0252
    1DIPC   GL1 4143  26.546  17.397   5.736  0.1268 -0.0275 -0.2071
    1DIPC   GL2 4144  26.540  17.664   5.696  0.2111  0.2276 -0.1856
    1DIPC   C1A 4145  26.409  17.324   5.310 -0.0146  0.0620  0.2187
    1DIPC   D2A 4146  26.151  17.500   4.936 -0.1380 -0.0749 -0.3751
    1DIPC   D3A 4147  26.446  17.481   4.631 -0.0511  0.0420  0.0835
    1DIPC   C4A 4148  26.486  17.300   4.187 -0.0214 -0.3564 -0.2849
    1DIPC   C1B 4149  26.814  18.047   5.395  0.4676  0.1971  0.1349
    1DIPC   D2B 4150  26.941  17.946   4.992 -0.0496 -0.3644 -0.4496
    1DIPC   D3B 4151  26.604  17.945   4.672  0.2582  0.0660 -0.0766
    1DIPC   C4B 4152  26.762  18.156   4.239  0.0608 -0.3246 -0.0835
    1DIPC   NC3 4153  29.065   2.036   6.743 -0.2589 -0.0286 -0.3248
    1DIPC   PO4 4154  29.202   2.268   6.532  0.1372 -0.1651  0.1777
    1DIPC   GL1 4155  28.934   2.198   6.201  0.1871  0.0589 -0.1081
    1DIPC   GL2 4156  29.165   2.395   6.038 -0.1323 -0.0188  0.0037
    1DIPC   C1A 4157  28.970   2.009   5.823 -0.1991 -0.2719 -0.1509
    1DIPC   D2A 4158  29.317   1.856   5.544  0.1016 -0.2844  0.1742
    1DIPC   D3A 4159  29.647   2.090   5.738 -0.0346  0.1164  0.0921
    1DIPC   C4A 4160  30.033   1.978   5.598  0.1383 -0.2623 -0.0065
    1DIPC   C1B 4161  29.199   2.379   5.551 -0.3408  0.0181 -0.0640
    1DIPC   D2B 4162  29.353   2.135   5.109  0.2921  0.1190  0.1756
    1DIPC   D3B 4163  29.116   1.710   4.888  0.3107 -0.0193 -0.1266
    1DIPC   C4B 4164  29.349   1.415   5.021  0.0219 -0.3157  0.1693
    1DIPC   NC3 4165  10.449  25.532   6.422 -0.1774  0.0709  0.0379
    1DIPC   PO4 4166  10.683  25.892   6.471  0.0540  0.0037 -0.0483
    1DIPC   GL1 4167  10.603  25.903   6.071  0.3794 -0.1361 -0.2166
    1DIPC   GL2 4168  10.242  26.039   5.981  0.1558  0.0119 -0.3640
    1DIPC   C1A 4169  10.529  25.883   5.605 -0.2917  0.1426  0.1079
    1DIPC   D2A 4170  10.456  25.959   5.236 -0.1852 -0.0942  0.1819
    1DIPC   D3A 4171  10.200  25.577   4.938  0.0695  0.1450  0.1565
    1DIPC   C4A 4172  10.240  25.686   4.487  0.1669  0.2645  0.1527
    1DIPC   C1B 4173   9.999  26.229   5.638  0.1176 -0.1269 -0.0393
    1DIPC   D2B 4174   9.659  26.395   5.539 -0.3253 -0.2360  0.1632
    1DIPC   D3B 4175   9.604  26.327   5.076 -0.1239  0.5126 -0.1596
    1DIPC   C4B 4176   9.461  26.661   4.844  0.6254  0.1116 -0.0652
    1DIPC   NC3 4177   3.861  28.628   6.197 -0.0522 -0.0063  0.1139
    1DIPC   PO4 4178   3.914  28.244   6.316  0.2107  0.0701  0.0267
    1DIPC   GL1 4179   3.824  28.111   5.911  0.3018 -0.1210 -0.2104
    1DIPC   GL2 4180   3.690  28.335   5.786 -0.1902  0.1708 -0.2611
    1DIPC   C1A 4181   3.810  28.030   5.441  0.0723 -0.1138  0.0520
    1DIPC   D2A 4182   3.428  27.962   5.081  0.0122  0.0812  0.1028
    1DIPC   D3A 4183   3.355  28.400   5.249 -0.0205  0.0098 -0.0418
    1DIPC   C4A 4184   2.981  28.653   5.280 -0.0160  0.0393 -0.1324
    1DIPC   C1B 4185   3.856  28.583   5.303  0.1188 -0.1769 -0.0484
    1DIPC   D2B 4186   3.793  28.764   4.895  0.4115 -0.2438  0.0125
    1DIPC   D3B 4187   3.976  28.373   4.800 -0.0157  0.0315  0.2963
    1DIPC   C4B 4188   3.776  28.039   4.704  0.4080 -0.1147 -0.0514
    1DIPC   NC3 4189   5.298  21.346   5.756 -0.3144 -0.0477  0.1402
    1DIPC   PO4 4190   4.875  21.206   5.767  0.0032 -0.1253  0.0147
    1DIPC   GL1 4191   4.960  21.120   5.394 -0.1670 -0.1074 -0.2660
    1DIPC   GL2 4192   5.156  21.269   5.189 -0.0158  0.1883 -0.2516
    1DIPC   C1A 4193   4.763  21.034   5.004 -0.0365 -0.0849 -0.3437
    1DIPC   D2A 4194   4.624  20.811   4.766  0.0278 -0.0389 -0.3732
    1DIPC   D3A 4195   4.976  20.566   4.642 -0.1652 -0.1282 -0.1328
    1DIPC   C4A 4196   4.940  20.364   4.327 -0.1943  0.1368  0.1021
    1DIPC   C1B 4197   5.371  21.266   4.831 -0.3243 -0.2929 -0.2001
    1DIPC   D2B 4198   5.623  21.539   4.517 -0.0428 -0.0195 -0.0259
    1DIPC   D3B 4199   5.623  21.578   4.098 -0.1472  0.0578  0.0828
    1DIPC   C4B 4200   5.665  22.017   3.904  0.0205  0.0936 -0.2692
    1DIPC   NC3 4201   8.228  16.889   6.171 -0.0107  0.0222  0.0712
    1DIPC   PO4 4202   8.558  16.562   6.205 -0.0852  0.0732  0.2078
    1DIPC   GL1 4203   8.719  16.750   5.770 -0.4023  0.1494  0.1457
    1DIPC   GL2 4204   8.383  16.835   5.667  0.3167  0.0353  0.0451
    1DIPC   C1A 4205   8.701  16.695   5.317  0.2890 -0.0105  0.2396
    1DIPC   D2A 4206   8.837  16.872   4.988 -0.2431 -0.2927 -0.0695
    1DIPC   D3A 4207   8.487  16.522   4.906  0.2723  0.1874 -0.1451
    1DIPC   C4A 4208   8.617  16.227   4.648 -0.0077 -0.0958 -0.0974
    1DIPC   C1B 4209   8.166  16.826   5.236  0.0786  0.0741  0.1386
    1DIPC   D2B 4210   7.987  16.437   4.978  0.2805 -0.0952  0.0777
    1DIPC   D3B 4211   8.115  16.292   4.701  0.0387  0.3654 -0.0122
    1DIPC   C4B 4212   7.972  16.104   4.360 -0.2761 -0.0560 -0.3358
    1DIPC   NC3 4213  26.956   8.162   5.853 -0.1298 -0.2552 -0.2591
    1DIPC   PO4 4214  26.614   8.330   5.923 -0.0737  0.4509 -0.1108
    1DIPC   GL1 4215  26.688   8.341   5.510 -0.0520  0.0776  0.0669
    1DIPC   GL2 4216  26.384   8.517   5.497  0.1572 -0.1431 -0.0592
    1DIPC   C1A 4217  26.557   8.030   5.156  0.0715  0.1678 -0.2476
    1DIPC   D2A 4218  26.561   8.233   4.694  0.2070 -0.3323 -0.0058
    1DIPC   D3A 4219  26.868   8.447   4.931 -0.0900  0.1291 -0.2365
    1DIPC   C4A 4220  26.846   8.836   5.243 -0.0223  0.1445  0.0715
    1DIPC   C1B 4221  26.453   8.679   5.064 -0.1243  0.1572 -0.0591
    1DIPC   D2B 4222  26.563   8.762   4.592 -0.2156  0.1792 -0.3693
    1DIPC   D3B 4223  26.283   9.026   4.449 -0.0274 -0.1185 -0.0678
    1DIPC   C4B 4224  26.174   9.463   4.487  0.0964  0.1894  0.0559
    1DIPC   NC3 4225  27.004   9.691   6.062 -0.1633  0.1320  0.1193
    1DIPC   PO4 4226  26.579   9.761   6.188 -0.2397  0.0146 -0.1781
    1DIPC   GL1 4227  26.453   9.909   5.797 -0.0668  0.0108  0.2944
    1DIPC   GL2 4228  26.675   9.710   5.539  0.3024  0.0446  0.2045
    1DIPC   C1A 4229  26.031  10.050   5.654  0.1514 -0.0853  0.0873
    1DIPC   D2A 4230  25.764   9.978   5.269  0.1819 -0.0520 -0.0577
    1DIPC   D3A 4231  25.546   9.575   5.228  0.2790  0.0360  0.1934
    1DIPC   C4A 4232  25.211   9.474   5.582  0.0045 -0.1171  0.0932
    1DIPC   C1B 4233  26.778   9.699   5.125  0.0338  0.0770  0.0599
    1DIPC   D2B 4234  27.010   9.321   4.982 -0.3182 -0.2374  0.4183
    1DIPC   D3B 4235  27.388   9.258   4.963 -0.0125  0.1169  0.2457
    1DIPC   C4B 4236  27.561   9.426   5.207  0.1260  0.0922 -0.1565
    1DIPC   NC3 4237  24.396   4.313   7.347  0.1156 -0.1500 -0.0023
    1DIPC   PO4 4238  24.210   4.117   7.000  0.3667  0.2118 -0.2290
    1DIPC   GL1 4239  24.222   3.902   6.601  0.0835  0.0758 -0.0644
    1DIPC   GL2 4240  24.380   3.613   6.639  0.4040  0.1042 -0.2582
    1DIPC   C1A 4241  24.062   3.874   6.174  0.0561 -0.1380 -0.1348
    1DIPC   D2A 4242  24.183   3.903   5.734  0.1329  0.0173  0.0562
    1DIPC   D3A 4243  24.581   3.901   5.885 -0.0614  0.1752  0.0672
    1DIPC   C4A 4244  24.513   4.253   6.141  0.2855 -0.0515  0.0319
    1DIPC   C1B 4245  24.345   3.385   6.299 -0.0399 -0.0324  0.1817
    1DIPC   D2B 4246  24.009   3.428   5.914 -0.0155  0.0945  0.1139
    1DIPC   D3B 4247  24.213   3.043   5.754  0.1864  0.1397  0.0314
    1DIPC   C4B 4248  24.017   2.711   5.483  0.1394 -0.0959 -0.3391
    1DIPC   NC3 4249  26.191  22.332   6.049 -0.0834 -0.0671 -0.0222
    1DIPC   PO4 4250  26.589  22.578   6.245  0.1231 -0.1274 -0.1154
    1DIPC   GL1 4251  26.630  22.412   5.845 -0.2264 -0.0921  0.0155
    1DIPC   GL2 4252  26.988  22.391   5.698 -0.0412 -0.0649 -0.1371
    1DIPC   C1A 4253  26.663  22.102   5.464  0.0872  0.1489  0.2048
    1DIPC   D2A 4254  26.610  22.334   5.049 -0.0995  0.0305  0.2525
    1DIPC   D3A 4255  26.697  21.983   4.823 -0.1043 -0.3167 -0.0310
    1DIPC   C4A 4256  26.893  21.679   5.130 -0.0287 -0.2345  0.0636
    1DIPC   C1B 4257  27.085  22.230   5.255 -0.1620  0.0836  0.1730
    1DIPC   D2B 4258  27.518  22.200   5.029  0.0561 -0.2562  0.3043
    1DIPC   D3B 4259  27.751  22.608   5.077 -0.0798 -0.0544 -0.0396
    1DIPC   C4B 4260  27.830  22.870   5.490 -0.1041  0.0055 -0.0676
    1DIPC   NC3 4261  21.939  28.898   7.180  0.1328  0.2751 -0.0059
    1DIPC   PO4 4262  22.073  28.666   6.831 -0.1348 -0.1595 -0.3623
    1DIPC   GL1 4263  21.853  28.542   6.571 -0.2187 -0.0387 -0.2310
    1DIPC   GL2 4264  21.582  28.390   6.536 -0.1294 -0.0030  0.4437
    1DIPC   C1A 4265  21.728  28.844   6.206  0.4065  0.3295  0.0300
    1DIPC   D2A 4266  21.704  28.790   5.714  0.1089 -0.0686  0.0797
    1DIPC   D3A 4267  21.830  29.115   5.531 -0.2245  0.0663  0.1449
    1DIPC   C4A 4268  21.666  29.346   5.092 -0.0358 -0.0305 -0.1508
    1DIPC   C1B 4269  21.224  28.710   6.372 -0.1013 -0.0183  0.0456
    1DIPC   D2B 4270  20.809  28.764   6.377 -0.0674 -0.1131 -0.0508
    1DIPC   D3B 4271  20.751  29.051   6.068  0.1562  0.1734  0.2680
    1DIPC   C4B 4272  20.987  29.155   5.765  0.1756 -0.1493  0.0437
    1DIPC   NC3 4273  21.897  23.347   6.397  0.3026 -0.2152 -0.2060
    1DIPC   PO4 4274  21.486  23.506   6.599 -0.1712 -0.1430  0.2998
    1DIPC   GL1 4275  21.537  23.635   6.127 -0.1584 -0.0629 -0.0412
    1DIPC   GL2 4276  21.858  23.665   5.985 -0.0630 -0.1296  0.1543
    1DIPC   C1A 4277  21.404  23.649   5.692  0.2027  0.0686  0.0227
    1DIPC   D2A 4278  21.338  23.338   5.292 -0.1157  0.1242  0.2163
    1DIPC   D3A 4279  21.132  23.040   5.594 -0.2022 -0.4621  0.1447
    1DIPC   C4A 4280  20.735  22.868   5.506 -0.2919  0.1259  0.1872
    1DIPC   C1B 4281  21.758  23.324   5.624 -0.2049  0.0786 -0.2674
    1DIPC   D2B 4282  21.935  23.002   5.439 -0.0396  0.4277 -0.0313
    1DIPC   D3B 4283  21.820  23.209   5.040  0.0247 -0.0517  0.3860
    1DIPC   C4B 4284  21.805  23.587   5.219  0.2615  0.1056  0.1896
    1DIPC   NC3 4285  10.695   1.102   6.941  0.2222  0.1161 -0.1974
    1DIPC   PO4 4286  10.872   1.416   6.987  0.3118  0.1562  0.0980
    1DIPC   GL1 4287  11.061   1.263   6.670  0.0272 -0.4790  0.1796
    1DIPC   GL2 4288  10.789   1.278   6.495  0.0496 -0.2010 -0.0558
    1DIPC   C1A 4289  11.396   1.172   6.352  0.1746 -0.1013 -0.0431
    1DIPC   D2A 4290  11.666   1.100   6.036 -0.0565  0.0155 -0.0894
    1DIPC   D3A 4291  11.749   1.580   5.915  0.1627  0.0294 -0.1827
    1DIPC   C4A 4292  11.755   1.532   5.470  0.4330  0.3206  0.1068
    1DIPC   C1B 4293  10.805   1.198   6.081  0.2500 -0.1507  0.2809
    1DIPC   D2B 4294  10.620   1.305   5.692  0.1135  0.3372  0.3493
    1DIPC   D3B 4295  11.104   1.318   5.726  0.2134 -0.0892  0.0877
    1DIPC   C4B 4296  11.321   1.088   5.633  0.3300  0.0045  0.0063
    1DIPC   NC3 4297  25.669  29.099   6.944 -0.1516  0.2266 -0.1826
    1DIPC   PO4 4298  25.194  29.111   7.055 -0.1499 -0.0755 -0.0226
    1DIPC   GL1 4299  25.125  29.098   6.676 -0.2948 -0.0431  0.2519
    1DIPC   GL2 4300  25.255  28.931   6.450  0.0384  0.1711 -0.3943
    1DIPC   C1A 4301  24.753  29.076   6.473 -0.1348  0.0393  0.1058
    1DIPC   D2A 4302  24.250  28.987   6.408 -0.1851 -0.1647  0.0891
    1DIPC   D3A 4303  24.378  28.611   6.259  0.0486  0.3493  0.0676
    1DIPC   C4A 4304  24.766  28.765   5.937 -0.3713  0.0712 -0.1300
    1DIPC   C1B 4305  25.129  29.049   6.039  0.0150 -0.1825 -0.2507
    1DIPC   D2B 4306  25.228  28.933   5.642 -0.1252  0.0921 -0.1119
    1DIPC   D3B 4307  24.946  28.579   5.459  0.1634 -0.0558  0.1148
    1DIPC   C4B 4308  25.021  28.278   5.158  0.6085  0.2899 -0.0086
    1DIPC   NC3 4309   3.880   1.221   6.435  0.0406  0.0241 -0.2411
    1DIPC   PO4 4310   4.210   1.249   6.851  0.0943 -0.0124 -0.4157
    1DIPC   GL1 4311   4.397   1.153   6.490  0.4187 -0.0981 -0.0174
    1DIPC   GL2 4312   4.486   0.826   6.525  0.1355 -0.0962 -0.2192
    1DIPC   C1A 4313   4.672   1.160   6.079 -0.0277 -0.0440 -0.1852
    1DIPC   D2A 4314   4.659   1.397   5.694  0.0798  0.1451 -0.2823
    1DIPC   D3A 4315   5.048   1.526   5.854  0.0267  0.0110  0.0309
    1DIPC   C4A 4316   5.279   1.441   5.531 -0.0474 -0.1296 -0.0457
    1DIPC   C1B 4317   4.299   0.796   6.095  0.0028 -0.2876 -0.1674
    1DIPC   D2B 4318   4.402   0.912   5.646  0.0477  0.3662 -0.1582
    1DIPC   D3B 4319   4.622   0.999   5.309  0.1669  0.0819  0.2349
    1DIPC   C4B 4320   4.269   0.989   4.943  0.2782 -0.2449 -0.0623
    1DIPC   NC3 4321  28.559  27.913   6.748  0.1813  0.3150  0.1611
    1DIPC   PO4 4322  28.442  27.599   6.609  0.0110 -0.0272 -0.1006
    1DIPC   GL1 4323  28.620  27.518   6.241  0.2873  0.1011  0.0267
    1DIPC   GL2 4324  28.301  27.619   6.068 -0.1462 -0.2895 -0.1715
    1DIPC   C1A 4325  28.779  27.359   5.903 -0.0364  0.1690  0.0627
    1DIPC   D2A 4326  29.069  27.130   5.629  0.0205  0.1679  0.1258
    1DIPC   D3A 4327  29.261  26.728   5.663 -0.0988  0.2927  0.0235
    1DIPC   C4A 4328  29.386  26.443   5.285  0.0057 -0.2105 -0.2629
    1DIPC   C1B 4329  28.330  27.532   5.644  0.1455  0.3553 -0.0550
    1DIPC   D2B 4330  28.321  27.639   5.221 -0.1296 -0.2043  0.0956
    1DIPC   D3B 4331  27.978  27.696   5.083  0.0743 -0.0056  0.1048
    1DIPC   C4B 4332  27.917  27.724   4.740 -0.0631 -0.1043 -0.2923
    1DIPC   NC3 4333  14.385  26.031   6.701  0.0172  0.1515  0.1037
    1DIPC   PO4 4334  14.453  25.580   6.600  0.0461 -0.0728 -0.0287
    1DIPC   GL1 4335  14.469  25.457   6.152  0.1808  0.1998 -0.1570
    1DIPC   GL2 4336  14.277  25.695   6.003  0.0544 -0.0508 -0.0394
    1DIPC   C1A 4337  14.739  25.474   5.821 -0.2674  0.2569 -0.1919
    1DIPC   D2A 4338  15.072  25.118   5.641  0.3792 -0.2389  0.0652
    1DIPC   D3A 4339  15.389  25.082   5.762  0.2917 -0.0670 -0.1266
    1DIPC   C4A 4340  15.652  24.733   5.536 -0.0409  0.0353  0.0788
    1DIPC   C1B 4341  14.065  25.854   5.661 -0.0381  0.1960  0.3184
    1DIPC   D2B 4342  13.687  25.733   5.413  0.0269 -0.0111 -0.0178
    1DIPC   D3B 4343  13.974  25.675   5.137  0.1689  0.1823  0.0223
    1DIPC   C4B 4344  14.030  26.041   4.782 -0.1423  0.2208 -0.2751
    1DIPC   NC3 4345  18.278   5.001   6.349 -0.1343 -0.3243 -0.1786
    1DIPC   PO4 4346  17.871   5.135   6.337  0.1825 -0.1744  0.1671
    1DIPC   GL1 4347  17.952   4.933   5.930  0.3117 -0.0748  0.0770
    1DIPC   GL2 4348  18.079   4.556   5.952  0.2156 -0.1369  0.1057
    1DIPC   C1A 4349  18.054   5.105   5.633  0.0077  0.0569  0.2995
    1DIPC   D2A 4350  17.965   5.535   5.339  0.3039  0.3317  0.1368
    1DIPC   D3A 4351  17.959   5.539   4.892  0.1863  0.1935  0.1709
    1DIPC   C4A 4352  18.001   5.222   4.567 -0.0775 -0.1940  0.3142
    1DIPC   C1B 4353  17.820   4.483   5.588  0.3319 -0.1941  0.1992
    1DIPC   D2B 4354  17.405   4.645   5.548 -0.1159 -0.1957 -0.1117
    1DIPC   D3B 4355  17.218   4.292   5.376  0.1335 -0.0264 -0.0724
    1DIPC   C4B 4356  16.754   4.213   5.206 -0.0577  0.0780 -0.1440
    1DIPC   NC3 4357  11.096  25.868   6.169  0.0022  0.2235 -0.1374
    1DIPC   PO4 4358  10.935  25.502   6.066 -0.1121  0.1477  0.2332
    1DIPC   GL1 4359  11.000  25.721   5.679 -0.0515  0.1791  0.0620
    1DIPC   GL2 4360  10.945  26.116   5.739  0.2790 -0.0362  0.0435
    1DIPC   C1A 4361  10.986  25.853   5.301  0.1127  0.0965  0.2283
    1DIPC   D2A 4362  11.024  25.562   4.976  0.0807  0.0519 -0.0112
    1DIPC   D3A 4363  10.722  25.559   4.725  0.5092  0.0541 -0.2170
    1DIPC   C4A 4364  10.681  25.433   4.328 -0.0152 -0.2578 -0.0502
    1DIPC   C1B 4365  10.521  26.349   5.795 -0.0293  0.3607 -0.1862
    1DIPC   D2B 4366  10.727  26.829   5.768 -0.1460 -0.0457 -0.0648
    1DIPC   D3B 4367  10.832  27.010   5.376 -0.1197  0.0699  0.1296
    1DIPC   C4B 4368  11.177  27.026   5.187  0.0212 -0.2394  0.2410
    1DIPC   NC3 4369  18.072  24.081   7.151 -0.1639 -0.2781  0.0825
    1DIPC   PO4 4370  17.835  23.835   6.888  0.1492 -0.1338  0.0359
    1DIPC   GL1 4371  18.032  23.924   6.661  0.3185 -0.1252 -0.0147
    1DIPC   GL2 4372  17.887  23.915   6.257 -0.0066 -0.0859  0.1645
    1DIPC   C1A 4373  18.446  23.881   6.467 -0.0496  0.1905 -0.1402
    1DIPC   D2A 4374  18.889  23.732   6.357 -0.0828  0.2156 -0.1118
    1DIPC   D3A 4375  19.274  23.980   6.500 -0.0123  0.0983  0.0446
    1DIPC   C4A 4376  19.650  23.971   6.294 -0.0339  0.0681 -0.2963
    1DIPC   C1B 4377  18.029  24.040   5.893  0.2474 -0.3772  0.1283
    1DIPC   D2B 4378  18.165  24.398   5.644 -0.3098  0.0273 -0.1024
    1DIPC   D3B 4379  17.662  24.621   5.708 -0.2293 -0.0397  0.0480
    1DIPC   C4B 4380  17.528  24.764   5.360  0.0775 -0.0219 -0.0937
    1DIPC   NC3 4381  24.712   7.096   6.841 -0.2172  0.3020  0.1244
    1DIPC   PO4 4382  25.129   6.858   6.691 -0.4300  0.0918 -0.2670
    1DIPC   GL1 4383  24.798   6.846   6.424 -0.1737  0.0427  0.3458
    1DIPC   GL2 4384  24.838   7.044   6.232 -0.1647 -0.1287  0.1308
    1DIPC   C1A 4385  24.476   6.671   6.093  0.1710  0.2917 -0.0341
    1DIPC   D2A 4386  24.107   6.843   6.012  0.3368 -0.2498  0.3738
    1DIPC   D3A 4387  24.268   6.923   5.645  0.0757 -0.1295  0.0156
    1DIPC   C4A 4388  24.354   7.335   5.486 -0.1232  0.0049 -0.2859
    1DIPC   C1B 4389  24.858   6.913   5.834 -0.0768 -0.4579  0.2146
    1DIPC   D2B 4390  24.665   6.559   5.637  0.0694  0.3164 -0.1172
    1DIPC   D3B 4391  24.525   6.570   5.167 -0.3828 -0.0768  0.1010
    1DIPC   C4B 4392  24.640   6.860   4.876 -0.0378 -0.0090  0.2348
    1DIPC   NC3 4393   0.121  17.987   6.512  0.0221  0.2459  0.0956
    1DIPC   PO4 4394  -0.328  17.999   6.480  0.1514  0.0461 -0.1304
    1DIPC   GL1 4395  -0.266  17.799   6.027  0.0988 -0.1919  0.2199
    1DIPC   GL2 4396  -0.558  17.638   5.899  0.1025 -0.0465  0.1920
    1DIPC   C1A 4397   0.063  17.745   5.764  0.0378  0.0164 -0.2559
    1DIPC   D2A 4398   0.387  17.743   5.331  0.1760 -0.0849 -0.3590
    1DIPC   D3A 4399   0.522  17.725   4.974  0.2799  0.2994  0.1402
    1DIPC   C4A 4400   0.331  17.745   4.480 -0.1117 -0.0315 -0.3058
    1DIPC   C1B 4401  -0.441  17.713   5.517  0.2291  0.4174  0.0152
    1DIPC   D2B 4402  -0.442  17.724   5.012  0.0841  0.0432  0.1084
    1DIPC   D3B 4403  -0.080  17.962   4.755 -0.1023  0.3356  0.0225
    1DIPC   C4B 4404  -0.288  18.077   4.351 -0.1984 -0.0904 -0.2159
    1DIPC   NC3 4405  11.322  10.063   6.958 -0.0681  0.2176  0.0803
    1DIPC   PO4 4406  11.756   9.874   6.899 -0.2777  0.2012 -0.4466
    1DIPC   GL1 4407  11.575   9.754   6.473 -0.3224  0.1968  0.1213
    1DIPC   GL2 4408  11.256   9.809   6.512 -0.1110  0.1037 -0.1717
    1DIPC   C1A 4409  11.636   9.858   6.060  0.2275 -0.0033 -0.0056
    1DIPC   D2A 4410  11.713   9.958   5.630  0.1428  0.0972  0.1867
    1DIPC   D3A 4411  11.838   9.713   5.305 -0.0039 -0.2133  0.3258
    1DIPC   C4A 4412  12.167   9.755   5.146 -0.1785  0.0510 -0.0404
    1DIPC   C1B 4413  11.140   9.935   6.124 -0.0081  0.0923 -0.1832
    1DIPC   D2B 4414  11.049   9.965   5.706 -0.2047  0.1261 -0.1541
    1DIPC   D3B 4415  10.703  10.015   5.388  0.0572 -0.1132  0.4434
    1DIPC   C4B 4416  10.735  10.358   5.163 -0.1437  0.0035 -0.2432
    1DIPC   NC3 4417  28.911  25.083   6.320  0.1206 -0.1290  0.1715
    1DIPC   PO4 4418  28.850  25.582   6.324 -0.1053  0.0457  0.1339
    1DIPC   GL1 4419  28.924  25.746   5.920  0.1229 -0.1521  0.1620
    1DIPC   GL2 4420  28.980  25.481   5.790  0.2655 -0.0164 -0.0288
    1DIPC   C1A 4421  28.809  26.121   5.547 -0.1570  0.0458 -0.1114
    1DIPC   D2A 4422  28.622  26.103   5.093 -0.0092 -0.1724 -0.1088
    1DIPC   D3A 4423  28.982  26.108   5.095  0.1683 -0.1369  0.3958
    1DIPC   C4A 4424  29.236  26.393   4.796  0.2614 -0.0875 -0.1162
    1DIPC   C1B 4425  28.975  25.294   5.449 -0.3988 -0.0929  0.1389
    1DIPC   D2B 4426  28.900  24.857   5.350  0.1407 -0.0220  0.0953
    1DIPC   D3B 4427  28.684  24.687   5.023 -0.0234  0.2249  0.0902
    1DIPC   C4B 4428  28.583  24.904   4.761  0.0362 -0.0444  0.0249
    1DIPC   NC3 4429   9.049  20.658   6.318 -0.1040 -0.0254 -0.0261
    1DIPC   PO4 4430   9.437  20.710   6.176 -0.2166  0.1035  0.0894
    1DIPC   GL1 4431   9.688  20.695   5.821  0.0595  0.1574  0.4218
    1DIPC   GL2 4432   9.493  20.956   5.601  0.0341 -0.0042  0.0623
    1DIPC   C1A 4433   9.683  20.613   5.319  0.1279  0.2631 -0.0359
    1DIPC   D2A 4434   9.833  20.725   4.957  0.0556  0.0858 -0.2722
    1DIPC   D3A 4435   9.984  20.970   4.507  0.0805  0.2946  0.1116
    1DIPC   C4A 4436  10.416  21.215   4.429  0.0744  0.2225  0.1293
    1DIPC   C1B 4437   9.850  21.091   5.360  0.2566 -0.0166 -0.1063
    1DIPC   D2B 4438  10.275  21.314   5.516 -0.0333 -0.2414  0.1360
    1DIPC   D3B 4439   9.986  21.644   5.461 -0.4470 -0.2789  0.0295
    1DIPC   C4B 4440   9.772  21.589   5.007  0.1274 -0.0854 -0.0650
    1DIPC   NC3 4441   1.516   2.542   6.832  0.1020 -0.0590  0.0032
    1DIPC   PO4 4442   1.979   2.633   6.714 -0.2739  0.0961  0.0027
    1DIPC   GL1 4443   2.009   2.447   6.340 -0.2600  0.3454  0.1703
    1DIPC   GL2 4444   1.920   2.051   6.278  0.3308 -0.1236 -0.0078
    1DIPC   C1A 4445   2.136   2.580   5.998 -0.3428  0.0221 -0.0216
    1DIPC   D2A 4446   2.183   2.238   5.651  0.0565  0.2978 -0.0918
    1DIPC   D3A 4447   2.453   2.586   5.582  0.0605 -0.1708  0.0288
    1DIPC   C4A 4448   2.343   2.978   5.751  0.1393  0.0457  0.1441
    1DIPC   C1B 4449   1.837   1.787   6.104 -0.2901 -0.2450 -0.0224
    1DIPC   D2B 4450   1.956   1.822   5.712  0.1339  0.0691  0.0076
    1DIPC   D3B 4451   2.189   1.757   5.365  0.2016 -0.2441 -0.0905
    1DIPC   C4B 4452   2.587   2.097   5.357 -0.0620  0.0244 -0.0205
    1DIPC   NC3 4453  12.001   4.251   7.868  0.1540  0.2176 -0.0247
    1DIPC   PO4 4454  12.130   4.526   7.526 -0.0401 -0.4414  0.0698
    1DIPC   GL1 4455  12.200   4.447   6.990  0.0048  0.0351  0.1829
    1DIPC   GL2 4456  11.848   4.449   6.827 -0.0737  0.0952  0.0788
    1DIPC   C1A 4457  12.390   4.357   6.660  0.1664  0.3729 -0.0350
    1DIPC   D2A 4458  12.784   4.112   6.357  0.1090 -0.1288  0.1140
    1DIPC   D3A 4459  12.485   3.852   6.578  0.2379 -0.2082 -0.1007
    1DIPC   C4A 4460  12.374   3.457   6.440 -0.4817 -0.0835 -0.1433
    1DIPC   C1B 4461  11.880   4.013   6.822 -0.2245 -0.0553  0.0772
    1DIPC   D2B 4462  11.870   3.744   6.496  0.1669  0.2359  0.1301
    1DIPC   D3B 4463  11.578   3.899   6.191  0.1615  0.1561  0.2059
    1DIPC   C4B 4464  11.294   3.798   5.777 -0.1805  0.0442 -0.0582
    1DIPC   NC3 4465  10.986  28.703   7.909 -0.1310  0.0862  0.1783
    1DIPC   PO4 4466  11.302  28.830   7.500  0.0137 -0.2487 -0.0131
    1DIPC   GL1 4467  11.504  28.849   7.039  0.0440  0.3854 -0.0516
    1DIPC   GL2 4468  11.286  28.631   6.850 -0.1825 -0.4056 -0.0157
    1DIPC   C1A 4469  11.641  29.147   6.814 -0.0446 -0.1959  0.2473
    1DIPC   D2A 4470  12.075  29.264   6.728  0.3726  0.0240 -0.2040
    1DIPC   D3A 4471  12.035  28.941   6.472 -0.0299 -0.1590 -0.1650
    1DIPC   C4A 4472  11.655  28.745   6.502  0.2603 -0.0879 -0.1003
    1DIPC   C1B 4473  11.072  28.631   6.495 -0.0086 -0.0743  0.0150
    1DIPC   D2B 4474  10.638  28.899   6.396  0.0261  0.0986  0.0332
    1DIPC   D3B 4475  10.891  29.061   6.682  0.0683  0.0751 -0.0036
    1DIPC   C4B 4476  11.279  29.096   6.489  0.0469  0.1078 -0.0426
    1DIPC   NC3 4477  22.456  21.722   6.464 -0.1911  0.2885 -0.0005
    1DIPC   PO4 4478  22.192  22.058   6.571  0.2264  0.1508 -0.2480
    1DIPC   GL1 4479  21.951  22.027   6.239 -0.0261 -0.1435 -0.1355
    1DIPC   GL2 4480  21.756  21.767   6.263  0.0362  0.4273 -0.2072
    1DIPC   C1A 4481  21.836  22.001   5.747  0.1722  0.3910  0.0354
    1DIPC   D2A 4482  21.892  21.753   5.328  0.1995 -0.0756  0.0098
    1DIPC   D3A 4483  22.045  21.385   5.145 -0.1292 -0.0305 -0.0831
    1DIPC   C4A 4484  22.487  21.219   5.079  0.0901  0.3506  0.1805
    1DIPC   C1B 4485  21.435  21.742   5.977  0.0225 -0.2057  0.1342
    1DIPC   D2B 4486  21.387  21.871   5.485 -0.1519 -0.2286 -0.0799
    1DIPC   D3B 4487  21.191  22.124   5.266  0.0525 -0.1227 -0.0429
    1DIPC   C4B 4488  20.992  22.425   5.444 -0.0039  0.1931  0.0576
    1DIPC   NC3 4489   3.582  23.490   6.165 -0.3511 -0.0021 -0.1733
    1DIPC   PO4 4490   3.305  23.726   6.078 -0.2108  0.0714  0.4064
    1DIPC   GL1 4491   3.529  23.504   5.677  0.3317  0.2801  0.2528
    1DIPC   GL2 4492   3.291  23.532   5.444  0.0900  0.1300  0.0219
    1DIPC   C1A 4493   3.662  23.263   5.281 -0.4740  0.2612 -0.0098
    1DIPC   D2A 4494   3.767  23.561   5.041  0.0425 -0.1659  0.1779
    1DIPC   D3A 4495   3.651  23.818   5.287 -0.1848  0.0850 -0.0855
    1DIPC   C4A 4496   3.737  24.210   5.351 -0.1553  0.0189  0.3394
    1DIPC   C1B 4497   3.265  23.650   5.030 -0.1206 -0.1349  0.0560
    1DIPC   D2B 4498   3.428  23.623   4.647  0.0159  0.2034  0.0047
    1DIPC   D3B 4499   3.386  23.590   4.212 -0.0992  0.2933  0.2674
    1DIPC   C4B 4500   3.232  23.953   3.893  0.0827  0.1092  0.0699
    1DIPC   NC3 4501   4.591  23.870   5.535 -0.0229 -0.1288  0.1859
    1DIPC   PO4 4502   4.814  24.002   5.969  0.1485 -0.1721 -0.1895
    1DIPC   GL1 4503   5.093  23.993   5.545  0.1768  0.0622 -0.0906
    1DIPC   GL2 4504   5.067  23.643   5.582 -0.0812 -0.0113 -0.3356
    1DIPC   C1A 4505   5.100  24.110   5.100  0.0333 -0.0127 -0.2334
    1DIPC   D2A 4506   5.210  24.173   4.617 -0.4720  0.1800  0.1982
    1DIPC   D3A 4507   5.526  24.302   4.894  0.2047 -0.0946 -0.1865
    1DIPC   C4A 4508   5.684  24.719   4.725  0.0174 -0.0596 -0.0710
    1DIPC   C1B 4509   5.377  23.424   5.281  0.0080  0.1981 -0.1271
    1DIPC   D2B 4510   5.555  23.376   4.887 -0.1718 -0.2366 -0.0083
    1DIPC   D3B 4511   5.948  23.593   4.956  0.0363  0.2745  0.1398
    1DIPC   C4B 4512   6.220  23.776   4.547  0.0176 -0.3049 -0.3488
    1DIPC   NC3 4513   9.033   3.629   7.737 -0.0159  0.0138 -0.0066
    1DIPC   PO4 4514   9.085   3.736   7.343 -0.2085 -0.1982  0.2666
    1DIPC   GL1 4515   9.196   3.522   6.946 -0.0082 -0.2412 -0.0661
    1DIPC   GL2 4516   9.064   3.657   6.625 -0.2314  0.4578 -0.2255
    1DIPC   C1A 4517   9.100   3.127   6.769  0.0614 -0.0826 -0.0681
    1DIPC   D2A 4518   8.726   2.851   6.720 -0.2594  0.2592 -0.0702
    1DIPC   D3A 4519   8.587   3.249   6.772  0.0365  0.0914  0.2817
    1DIPC   C4A 4520   8.564   3.666   6.521 -0.0435  0.0805  0.2958
    1DIPC   C1B 4521   9.433   3.486   6.394  0.0636 -0.2254  0.0007
    1DIPC   D2B 4522   9.651   3.004   6.377  0.0812  0.1394  0.0571
    1DIPC   D3B 4523   9.858   2.626   6.331 -0.3955  0.1563  0.0586
    1DIPC   C4B 4524  10.081   2.213   6.199  0.1599 -0.0043  0.1507
    1DIPC   NC3 4525   8.542  25.026   6.587 -0.0764 -0.0001  0.0344
    1DIPC   PO4 4526   8.456  25.286   6.161  0.0302  0.1889  0.2546
    1DIPC   GL1 4527   8.293  25.240   5.738  0.2602 -0.0408  0.1377
    1DIPC   GL2 4528   8.118  25.509   5.630 -0.0922 -0.1053 -0.1833
    1DIPC   C1A 4529   8.155  25.134   5.344 -0.2385 -0.0794  0.0847
    1DIPC   D2A 4530   8.457  24.863   5.079  0.1431  0.1026  0.1313
    1DIPC   D3A 4531   8.390  25.154   4.688  0.1360 -0.2502 -0.2239
    1DIPC   C4A 4532   8.570  25.059   4.280  0.0712 -0.0950 -0.1988
    1DIPC   C1B 4533   8.275  25.879   5.312 -0.3585 -0.0081  0.2252
    1DIPC   D2B 4534   8.148  26.168   4.995  0.1806  0.1411 -0.3570
    1DIPC   D3B 4535   8.013  26.586   4.746 -0.1541 -0.1860  0.0189
    1DIPC   C4B 4536   7.607  26.679   4.669  0.0439  0.0325  0.0411
    1DIPC   NC3 4537  14.549  25.052   6.599  0.1426  0.0650  0.0997
    1DIPC   PO4 4538  14.452  24.893   6.188  0.0486 -0.0731 -0.0715
    1DIPC   GL1 4539  14.650  24.814   5.883  0.1354 -0.1363  0.2086
    1DIPC   GL2 4540  14.881  24.713   5.810  0.0728  0.1874 -0.0706
    1DIPC   C1A 4541  14.638  25.047   5.450 -0.0646  0.1111  0.0476
    1DIPC   D2A 4542  14.799  25.079   5.144 -0.1187 -0.1164  0.2964
    1DIPC   D3A 4543  14.705  24.754   4.918 -0.1142  0.1382 -0.0808
    1DIPC   C4A 4544  14.364  24.540   4.854  0.0378 -0.4888  0.0022
    1DIPC   C1B 4545  15.289  24.418   5.729  0.0606  0.4552  0.2414
    1DIPC   D2B 4546  15.216  24.142   5.418 -0.0336 -0.3496  0.0516
    1DIPC   D3B 4547  15.470  24.277   5.244 -0.0272  0.2808 -0.1396
    1DIPC   C4B 4548  15.890  24.538   5.137 -0.0669 -0.0304 -0.0474
    1DIPC   NC3 4549  20.919   0.924   6.806  0.1635 -0.0536 -0.0568
    1DIPC   PO4 4550  20.706   1.291   6.675 -0.0448 -0.2173  0.4872
    1DIPC   GL1 4551  20.709   1.420   6.208 -0.2969 -0.2248 -0.1347
    1DIPC   GL2 4552  20.579   1.528   6.082  0.1579  0.0621 -0.3437
    1DIPC   C1A 4553  20.971   1.411   5.846  0.0299  0.1600  0.2011
    1DIPC   D2A 4554  21.096   1.302   5.470  0.0064 -0.1768 -0.2092
    1DIPC   D3A 4555  20.795   1.254   5.330 -0.0401 -0.3191 -0.0419
    1DIPC   C4A 4556  20.424   1.524   5.269 -0.4700 -0.2739  0.1879
    1DIPC   C1B 4557  20.470   1.230   5.684 -0.1544 -0.0603  0.0452
    1DIPC   D2B 4558  20.439   0.925   5.387  0.3292  0.3376 -0.1027
    1DIPC   D3B 4559  20.487   1.128   4.970 -0.1749 -0.1477  0.0548
    1DIPC   C4B 4560  20.213   0.835   4.593 -0.3093  0.0056 -0.0331
    1DIPC   NC3 4561   3.802  27.755   6.337  0.3159 -0.0469  0.1222
    1DIPC   PO4 4562   4.233  27.849   6.527  0.1526  0.0983  0.1871
    1DIPC   GL1 4563   4.369  28.136   6.136 -0.1432 -0.1494 -0.0738
    1DIPC   GL2 4564   4.702  28.222   6.190  0.0115 -0.2071 -0.2436
    1DIPC   C1A 4565   4.245  28.102   5.678 -0.0324 -0.4144  0.0441
    1DIPC   D2A 4566   4.276  28.339   5.305 -0.0289  0.0109 -0.0891
    1DIPC   D3A 4567   4.206  28.046   5.083  0.2383 -0.2440  0.0926
    1DIPC   C4A 4568   4.505  27.709   4.887 -0.0135 -0.0010 -0.0222
    1DIPC   C1B 4569   4.725  27.949   5.818  0.0902 -0.0873 -0.0206
    1DIPC   D2B 4570   4.710  28.075   5.255  0.0324 -0.2926  0.0381
    1DIPC   D3B 4571   4.419  27.741   5.474  0.0362  0.0138  0.0145
    1DIPC   C4B 4572   4.449  27.351   5.229 -0.2480  0.1235 -0.3775
    1DIPC   NC3 4573   6.740  28.913   6.684 -0.2547 -0.2068  0.0542
    1DIPC   PO4 4574   6.995  28.639   6.735  0.0563 -0.1822 -0.4336
    1DIPC   GL1 4575   6.856  28.651   6.234 -0.1408 -0.0601 -0.1901
    1DIPC   GL2 4576   6.964  28.964   6.151 -0.0076  0.0559  0.4281
    1DIPC   C1A 4577   6.999  28.501   5.734  0.1977 -0.0882  0.0388
    1DIPC   D2A 4578   7.125  28.533   5.239  0.1229  0.4129  0.0389
    1DIPC   D3A 4579   6.771  28.419   5.119  0.1903  0.2946 -0.0348
    1DIPC   C4A 4580   6.426  28.245   5.274 -0.0780 -0.1026 -0.0922
    1DIPC   C1B 4581   7.336  29.175   6.403  0.1008  0.0046 -0.0635
    1DIPC   D2B 4582   7.582  29.455   6.156  0.0192  0.2193  0.3857
    1DIPC   D3B 4583   7.826  29.055   6.075 -0.2987  0.0564 -0.1064
    1DIPC   C4B 4584   7.975  28.785   5.743 -0.0285  0.0708 -0.0597
    1DIPC   NC3 4585  26.581  13.769   5.821 -0.0647 -0.1451 -0.3317
    1DIPC   PO4 4586  26.974  13.479   5.909  0.1152  0.1394  0.2602
    1DIPC   GL1 4587  26.822  13.634   5.436  0.1438 -0.2212 -0.1127
    1DIPC   GL2 4588  26.500  13.425   5.418  0.1358  0.2652  0.2125
    1DIPC   C1A 4589  26.961  13.676   5.010  0.0515  0.2197 -0.0427
    1DIPC   D2A 4590  27.079  13.507   4.676  0.0931  0.2279  0.1145
    1DIPC   D3A 4591  27.310  13.828   4.526  0.0223 -0.0125  0.1239
    1DIPC   C4A 4592  27.651  13.689   4.197  0.1159 -0.0580 -0.1149
    1DIPC   C1B 4593  26.385  13.459   5.051 -0.3183  0.0315 -0.2057
    1DIPC   D2B 4594  26.216  13.023   4.798  0.1420  0.0078 -0.0121
    1DIPC   D3B 4595  26.476  13.400   4.563  0.1533 -0.0797  0.0736
    1DIPC   C4B 4596  26.634  13.780   4.685 -0.2552  0.1554 -0.3631
    1DIPC   NC3 4597   7.503  22.262   5.660 -0.0544  0.2159  0.3121
    1DIPC   PO4 4598   7.778  22.468   5.810  0.1277  0.0268 -0.0281
    1DIPC   GL1 4599   7.675  22.675   5.442 -0.0161  0.0578  0.0996
    1DIPC   GL2 4600   7.975  22.635   5.213 -0.1086 -0.1838 -0.0314
    1DIPC   C1A 4601   7.449  22.732   5.045  0.5035 -0.4846  0.0072
    1DIPC   D2A 4602   7.369  22.852   4.710  0.1237 -0.0574 -0.2449
    1DIPC   D3A 4603   6.947  22.893   4.554 -0.1677 -0.1379 -0.0574
    1DIPC   C4A 4604   6.766  22.932   4.205 -0.0501 -0.0243  0.1809
    1DIPC   C1B 4605   7.948  22.787   4.732  0.3168  0.0472  0.2628
    1DIPC   D2B 4606   8.136  23.137   4.489  0.1839 -0.2255  0.0477
    1DIPC   D3B 4607   8.526  22.992   4.235  0.2788  0.0055  0.0803
    1DIPC   C4B 4608   8.887  23.304   4.230 -0.0661 -0.0648 -0.1772
    1DIPC   NC3 4609  17.429   5.318   6.177 -0.1053  0.0635 -0.2978
    1DIPC   PO4 4610  17.091   5.520   5.984  0.0178  0.1719  0.1469
    1DIPC   GL1 4611  17.391   5.476   5.612 -0.0287  0.0770 -0.0576
    1DIPC   GL2 4612  17.387   5.096   5.706 -0.1469 -0.0864 -0.3721
    1DIPC   C1A 4613  17.554   5.413   5.110  0.0747  0.1450 -0.1313
    1DIPC   D2A 4614  17.542   5.112   4.783  0.0783 -0.1944  0.3321
    1DIPC   D3A 4615  17.766   4.966   5.192 -0.1266  0.0234  0.0346
    1DIPC   C4A 4616  18.069   4.651   5.196 -0.0689 -0.2478 -0.0910
    1DIPC   C1B 4617  17.281   5.055   5.304  0.0794  0.0475 -0.2521
    1DIPC   D2B 4618  17.002   5.080   4.992 -0.2400 -0.3943 -0.1808
    1DIPC   D3B 4619  17.059   5.454   4.757  0.1558 -0.1375 -0.0408
    1DIPC   C4B 4620  16.859   5.899   4.871  0.0524  0.3157  0.0904
    1DIPC   NC3 4621   0.594   2.277   6.534 -0.2470  0.1354  0.3461
    1DIPC   PO4 4622   1.008   2.408   6.682  0.3287 -0.0592  0.0119
    1DIPC   GL1 4623   1.005   2.695   6.362  0.1849 -0.1140 -0.1561
    1DIPC   GL2 4624   0.767   2.570   6.195  0.1127  0.1413 -0.2649
    1DIPC   C1A 4625   1.085   2.998   6.046  0.0054  0.2129  0.0962
    1DIPC   D2A 4626   1.302   3.312   5.860 -0.1189 -0.0775  0.1527
    1DIPC   D3A 4627   1.310   3.193   5.490 -0.0313  0.1699 -0.2365
    1DIPC   C4A 4628   1.065   3.537   5.213 -0.2900 -0.0354 -0.0225
    1DIPC   C1B 4629   0.707   2.655   5.677 -0.3894 -0.0818  0.0816
    1DIPC   D2B 4630   0.595   2.522   5.228 -0.2964  0.1139 -0.0114
    1DIPC   D3B 4631   0.495   2.747   4.935  0.1242  0.3516  0.1811
    1DIPC   C4B 4632   0.235   3.158   5.067  0.0717 -0.2151  0.3433
    1DIPC   NC3 4633   7.251   2.001   7.607 -0.0377  0.0517 -0.1234
    1DIPC   PO4 4634   7.354   1.860   7.137 -0.0913  0.2027  0.1488
    1DIPC   GL1 4635   7.631   2.045   6.930  0.1767  0.1215 -0.0538
    1DIPC   GL2 4636   7.916   1.907   6.751  0.1544  0.0681  0.3004
    1DIPC   C1A 4637   7.620   2.211   6.452  0.0755  0.1368 -0.0892
    1DIPC   D2A 4638   7.470   1.931   6.105  0.1343  0.0732 -0.1612
    1DIPC   D3A 4639   7.943   1.795   6.241  0.0737  0.1140  0.1903
    1DIPC   C4A 4640   8.154   1.526   6.076 -0.1206  0.2602  0.1550
    1DIPC   C1B 4641   8.086   2.211   6.518 -0.0654 -0.0778 -0.1444
    1DIPC   D2B 4642   8.095   2.279   6.185 -0.4598  0.0258  0.1177
    1DIPC   D3B 4643   8.383   2.588   5.930 -0.0672 -0.3056  0.0400
    1DIPC   C4B 4644   8.809   2.589   5.659  0.1092  0.1584  0.2566
    1DIPC   NC3 4645  27.853  12.311   5.864 -0.0272  0.0950  0.2242
    1DIPC   PO4 4646  27.623  12.628   6.025 -0.0903  0.1744  0.2348
    1DIPC   GL1 4647  27.672  12.856   5.651  0.0577  0.1425 -0.0037
    1DIPC   GL2 4648  27.971  13.060   5.510  0.0350 -0.0789 -0.0349
    1DIPC   C1A 4649  27.585  12.936   5.205 -0.1836  0.0411 -0.1906
    1DIPC   D2A 4650  27.737  12.864   4.836 -0.2610  0.1108 -0.3145
    1DIPC   D3A 4651  27.302  12.735   4.755 -0.0809  0.1236  0.0809
    1DIPC   C4A 4652  27.079  12.303   4.992  0.0470 -0.0411 -0.1403
    1DIPC   C1B 4653  27.971  13.248   5.182 -0.1017  0.2539 -0.0597
    1DIPC   D2B 4654  27.615  13.435   4.963  0.2270 -0.0148  0.1782
    1DIPC   D3B 4655  27.998  13.384   4.707  0.0302  0.2969  0.1932
    1DIPC   C4B 4656  27.973  13.158   4.331  0.2409  0.2099 -0.1717
    1DIPC   NC3 4657  14.084  29.200   6.717  0.1347  0.0362  0.2362
    1DIPC   PO4 4658  13.748  29.603   6.841  0.2254  0.0017 -0.0201
    1DIPC   GL1 4659  13.851  29.449   6.324 -0.2678 -0.3106  0.0927
    1DIPC   GL2 4660  13.569  29.354   6.350 -0.2124  0.1494 -0.2642
    1DIPC   C1A 4661  13.864  29.353   5.818 -0.0736  0.4623 -0.4435
    1DIPC   D2A 4662  13.822  29.483   5.333  0.0220 -0.1309 -0.1902
    1DIPC   D3A 4663  13.688  29.974   5.456  0.0413 -0.1977 -0.1930
    1DIPC   C4A 4664  13.995  30.235   5.836 -0.3298 -0.0088  0.0697
    1DIPC   C1B 4665  13.354  28.919   6.317 -0.0356 -0.1071  0.0210
    1DIPC   D2B 4666  13.276  28.592   6.548  0.2713  0.0181 -0.2283
    1DIPC   D3B 4667  13.191  28.424   6.146 -0.2288 -0.1002  0.0922
    1DIPC   C4B 4668  13.393  28.016   6.048  0.3128 -0.0741 -0.0610
    1DIPC   NC3 4669  21.812   1.160   6.912  0.0941  0.1378 -0.1326
    1DIPC   PO4 4670  22.238   1.144   6.916 -0.1572 -0.0002  0.2902
    1DIPC   GL1 4671  22.356   1.020   6.617 -0.2738  0.0442 -0.1395
    1DIPC   GL2 4672  22.151   1.112   6.387  0.1335  0.0960  0.1863
    1DIPC   C1A 4673  22.661   0.842   6.511 -0.1135  0.1892  0.1703
    1DIPC   D2A 4674  22.971   0.533   6.325 -0.0482  0.1002  0.0359
    1DIPC   D3A 4675  22.886   0.192   6.150 -0.2229 -0.1732 -0.4382
    1DIPC   C4A 4676  23.117   0.110   5.867 -0.0059  0.1114 -0.2976
    1DIPC   C1B 4677  22.390   1.035   6.055 -0.0320 -0.0952 -0.1598
    1DIPC   D2B 4678  22.807   1.029   5.967  0.2012  0.1248  0.1613
    1DIPC   D3B 4679  22.933   1.340   6.291  0.2239  0.1801 -0.0214
    1DIPC   C4B 4680  22.503   1.529   6.383  0.1926  0.0834 -0.1393
    1DIPC   NC3 4681   9.983  25.744   6.246  0.0347 -0.0234 -0.0606
    1DIPC   PO4 4682   9.578  25.956   6.360  0.1326 -0.0942  0.2044
    1DIPC   GL1 4683   9.686  26.014   5.931  0.0553 -0.1007  0.2914
    1DIPC   GL2 4684   9.796  25.731   5.794  0.0754  0.0482 -0.1267
    1DIPC   C1A 4685   9.613  25.915   5.404  0.2749  0.1666  0.1851
    1DIPC   D2A 4686   9.924  25.959   5.137  0.1224  0.2273  0.1311
    1DIPC   D3A 4687  10.116  26.315   5.182 -0.0061  0.0990 -0.1095
    1DIPC   C4A 4688   9.966  26.704   5.217 -0.0136 -0.2732  0.0305
    1DIPC   C1B 4689  10.146  25.597   5.465  0.0457  0.1558  0.2731
    1DIPC   D2B 4690  10.545  25.479   5.260  0.1905 -0.1813 -0.0308
    1DIPC   D3B 4691  10.375  25.134   5.079  0.0875 -0.2119  0.1402
    1DIPC   C4B 4692  10.473  24.753   4.895  0.2265  0.0483  0.0297
    1DIPC   NC3 4693  22.806   5.692   6.638  0.3031  0.3107  0.2601
    1DIPC   PO4 4694  22.983   5.497   6.187 -0.1791 -0.1277  0.0206
    1DIPC   GL1 4695  23.120   5.479   5.825  0.0961 -0.2074  0.1354
    1DIPC   GL2 4696  23.378   5.601   5.796 -0.0385  0.1341 -0.2277
    1DIPC   C1A 4697  23.057   5.547   5.421  0.0914  0.1583 -0.0752
    1DIPC   D2A 4698  23.201   5.415   5.036 -0.5105  0.4958 -0.1729
    1DIPC   D3A 4699  23.317   5.845   5.006  0.0529  0.0963 -0.3874
    1DIPC   C4A 4700  23.141   6.256   5.108 -0.0882  0.0547  0.1759
    1DIPC   C1B 4701  23.661   5.484   5.451  0.3117  0.0478  0.2094
    1DIPC   D2B 4702  23.677   5.460   5.010  0.1659 -0.0432 -0.0973
    1DIPC   D3B 4703  23.903   5.121   5.144 -0.0291 -0.0389 -0.1145
    1DIPC   C4B 4704  24.114   5.089   5.586  0.0644  0.1405 -0.0051
    1DIPC   NC3 4705  10.893   6.757   7.116 -0.1288  0.0387 -0.0099
    1DIPC   PO4 4706  10.470   6.629   7.014  0.1981 -0.0414 -0.0451
    1DIPC   GL1 4707  10.217   6.503   6.736 -0.1455 -0.1227  0.0416
    1DIPC   GL2 4708  10.287   6.202   6.742  0.0716  0.1335  0.1107
    1DIPC   C1A 4709   9.772   6.276   6.583  0.0025 -0.1116 -0.0663
    1DIPC   D2A 4710   9.512   5.969   6.335 -0.0410 -0.1396 -0.4044
    1DIPC   D3A 4711   9.312   6.005   5.975  0.2779  0.0220  0.1493
    1DIPC   C4A 4712   9.315   6.445   5.672  0.0411 -0.0250 -0.1468
    1DIPC   C1B 4713  10.477   6.185   6.336 -0.0193  0.0155  0.2996
    1DIPC   D2B 4714  10.381   6.049   5.961  0.1196  0.1238 -0.0935
    1DIPC   D3B 4715  10.275   6.351   5.684  0.0723 -0.1492  0.2393
    1DIPC   C4B 4716  10.458   6.749   5.536  0.0985  0.0584  0.2810
    1DIPC   NC3 4717  24.174  22.557   6.510  0.2222  0.0244  0.1810
    1DIPC   PO4 4718  23.684  22.397   6.556 -0.2948  0.3616 -0.0726
    1DIPC   GL1 4719  23.564  22.016   6.412  0.0379 -0.1623 -0.1111
    1DIPC   GL2 4720  23.327  22.124   6.204 -0.1580 -0.2837  0.2108
    1DIPC   C1A 4721  23.665  21.748   6.006  0.2845  0.1230 -0.0144
    1DIPC   D2A 4722  23.877  21.643   5.691  0.1974  0.4355 -0.3304
    1DIPC   D3A 4723  23.805  21.537   5.319  0.2114 -0.2381  0.0744
    1DIPC   C4A 4724  23.578  21.682   4.988 -0.0554  0.1615  0.3910
    1DIPC   C1B 4725  23.520  22.207   5.778 -0.2934 -0.1848 -0.0194
    1DIPC   D2B 4726  23.921  22.152   5.381  0.0726 -0.0361  0.4055
    1DIPC   D3B 4727  24.240  22.054   5.486 -0.2148  0.0685  0.1056
    1DIPC   C4B 4728  24.581  21.991   5.197  0.1485  0.1973  0.1198
    1DIPC   NC3 4729  25.486  21.212   7.152 -0.1392 -0.0093  0.3372
    1DIPC   PO4 4730  25.789  21.274   6.869  0.1238 -0.2555  0.1407
    1DIPC   GL1 4731  25.942  21.376   6.431 -0.2302 -0.2068  0.0324
    1DIPC   GL2 4732  25.693  21.550   6.327 -0.2207 -0.0440  0.0150
    1DIPC   C1A 4733  26.028  21.373   6.040 -0.0089 -0.4426  0.0027
    1DIPC   D2A 4734  25.836  21.452   5.674  0.2452  0.0900  0.1780
    1DIPC   D3A 4735  25.854  20.940   5.649  0.0190 -0.0544  0.1129
    1DIPC   C4A 4736  26.181  20.713   5.458 -0.0753 -0.4119  0.1026
    1DIPC   C1B 4737  25.472  21.621   6.044 -0.2657  0.4559 -0.0610
    1DIPC   D2B 4738  25.309  21.560   5.558 -0.3893 -0.1418 -0.0517
    1DIPC   D3B 4739  25.224  21.168   5.269 -0.1731  0.2140 -0.0334
    1DIPC   C4B 4740  25.607  20.944   5.153  0.2067 -0.2588 -0.1313
    1DIPC   NC3 4741   7.214  25.281   6.168  0.0629  0.2179  0.0172
    1DIPC   PO4 4742   7.158  25.681   6.247 -0.0841 -0.0642 -0.0047
    1DIPC   GL1 4743   6.924  25.912   6.059 -0.1931  0.3329 -0.0814
    1DIPC   GL2 4744   7.152  25.970   5.837 -0.2148  0.1289  0.1731
    1DIPC   C1A 4745   6.759  26.360   5.976  0.0994 -0.1411 -0.0027
    1DIPC   D2A 4746   6.571  26.580   5.598 -0.1270 -0.0873  0.1597
    1DIPC   D3A 4747   6.878  26.795   5.367 -0.5204  0.2676 -0.1487
    1DIPC   C4A 4748   6.880  27.048   4.941  0.5048  0.2128  0.1867
    1DIPC   C1B 4749   7.312  26.011   5.450  0.0948  0.0053 -0.1916
    1DIPC   D2B 4750   7.437  26.232   5.149 -0.3019  0.0688 -0.1522
    1DIPC   D3B 4751   7.321  25.856   4.969  0.0658  0.1015 -0.1874
    1DIPC   C4B 4752   6.998  25.568   4.773  0.0932 -0.1757  0.2787
    1DIPC   NC3 4753  13.906   3.854   7.258  0.1336 -0.0919  0.3445
    1DIPC   PO4 4754  14.297   4.077   7.239 -0.1444 -0.1959  0.0797
    1DIPC   GL1 4755  14.543   4.127   6.817  0.3942 -0.1990  0.3858
    1DIPC   GL2 4756  14.680   3.948   6.914 -0.1399 -0.1922  0.3977
    1DIPC   C1A 4757  14.614   4.050   6.362 -0.1064  0.1322 -0.4236
    1DIPC   D2A 4758  14.937   4.124   6.025 -0.1255  0.1693  0.0892
    1DIPC   D3A 4759  14.979   4.486   5.714 -0.1593  0.0662 -0.2660
    1DIPC   C4A 4760  14.786   4.374   5.262 -0.1907 -0.2185  0.1946
    1DIPC   C1B 4761  14.726   3.651   6.643 -0.1715 -0.1479 -0.0906
    1DIPC   D2B 4762  14.741   3.237   6.468 -0.0549  0.0529 -0.0376
    1DIPC   D3B 4763  14.992   2.944   6.393  0.1293 -0.3137 -0.0994
    1DIPC   C4B 4764  15.185   2.807   6.004 -0.1478  0.0194 -0.3716
    1DIPC   NC3 4765   0.366  15.984   5.895 -0.0296 -0.1509  0.1101
    1DIPC   PO4 4766   0.505  16.409   6.072 -0.3004  0.0722 -0.2652
    1DIPC   GL1 4767   0.434  16.395   5.633 -0.1412  0.1529  0.1786
    1DIPC   GL2 4768   0.236  16.412   5.367 -0.1962 -0.0697 -0.0013
    1DIPC   C1A 4769   0.776  16.141   5.363 -0.3986  0.1344 -0.1656
    1DIPC   D2A 4770   1.068  15.931   5.128 -0.3900  0.2407 -0.2958
    1DIPC   D3A 4771   0.892  16.288   4.858  0.2349 -0.1615  0.1950
    1DIPC   C4A 4772   0.625  16.483   5.024 -0.0256  0.0042 -0.2315
    1DIPC   C1B 4773   0.338  16.841   5.264  0.0332 -0.2516  0.2077
    1DIPC   D2B 4774   0.415  17.201   5.084  0.0636  0.0332 -0.0558
    1DIPC   D3B 4775   0.147  17.005   4.758  0.1526 -0.2816  0.0223
    1DIPC   C4B 4776  -0.037  16.625   4.901 -0.0145 -0.0052 -0.1682
    1DIPC   NC3 4777  12.437   5.400   7.894  0.2578 -0.1894 -0.1957
    1DIPC   PO4 4778  12.287   5.591   7.518 -0.2988  0.1157 -0.1465
    1DIPC   GL1 4779  12.169   5.767   7.195  0.0980  0.1260 -0.0588
    1DIPC   GL2 4780  12.322   5.934   6.905  0.0110 -0.1144 -0.2275
    1DIPC   C1A 4781  11.972   5.653   6.786  0.0346 -0.2605  0.1257
    1DIPC   D2A 4782  12.093   5.307   6.524 -0.2056 -0.4103  0.1794
    1DIPC   D3A 4783  11.738   5.415   6.387 -0.0090  0.1092 -0.0048
    1DIPC   C4A 4784  11.671   5.782   6.135 -0.0886 -0.1737  0.2490
    1DIPC   C1B 4785  12.252   5.902   6.523  0.2688 -0.0988  0.5495
    1DIPC   D2B 4786  12.154   5.707   6.063 -0.0367 -0.2473  0.1097
    1DIPC   D3B 4787  11.995   5.477   5.757 -0.1405  0.0919  0.0267
    1DIPC   C4B 4788  12.322   5.230   5.458 -0.1525  0.2839  0.0732
    1DIPC   NC3 4789  11.751   5.514   7.585 -0.2063  0.1363  0.1026
    1DIPC   PO4 4790  11.547   5.181   7.386 -0.0105 -0.2147 -0.2110
    1DIPC   GL1 4791  11.610   5.159   6.879 -0.1674  0.2778 -0.2823
    1DIPC   GL2 4792  11.314   5.312   6.669 -0.0192 -0.1256 -0.2148
    1DIPC   C1A 4793  11.718   4.913   6.546 -0.0356  0.1334 -0.0700
    1DIPC   D2A 4794  12.119   4.768   6.400 -0.1333  0.3244  0.3926
    1DIPC   D3A 4795  11.869   4.619   6.163 -0.0431 -0.0567  0.4010
    1DIPC   C4A 4796  12.028   4.700   5.804 -0.0989  0.0416  0.0372
    1DIPC   C1B 4797  11.247   5.265   6.205 -0.0504 -0.1245 -0.1087
    1DIPC   D2B 4798  11.410   5.464   5.890 -0.0573  0.1462 -0.2843
    1DIPC   D3B 4799  11.663   5.054   5.986  0.0658  0.2340  0.1121
    1DIPC   C4B 4800  11.418   4.771   5.726  0.0334 -0.0347  0.1803
    1DIPC   NC3 4801  13.427   4.205   7.271 -0.3457  0.2338 -0.2083
    1DIPC   PO4 4802  13.469   3.765   7.204 -0.1133 -0.0040 -0.0841
    1DIPC   GL1 4803  13.688   3.734   6.766 -0.0320  0.2078 -0.3792
    1DIPC   GL2 4804  13.467   3.721   6.583  0.1837  0.1064 -0.0557
    1DIPC   C1A 4805  13.971   3.936   6.463  0.3384 -0.1863 -0.0164
    1DIPC   D2A 4806  14.105   4.339   6.175 -0.0873 -0.0004 -0.1588
    1DIPC   D3A 4807  13.992   4.014   5.930 -0.1043 -0.4117 -0.1747
    1DIPC   C4A 4808  14.182   3.837   5.580 -0.1252  0.1499 -0.0814
    1DIPC   C1B 4809  13.203   3.860   6.253  0.0317 -0.0448 -0.0084
    1DIPC   D2B 4810  13.085   3.806   5.817 -0.1228 -0.1894 -0.1280
    1DIPC   D3B 4811  12.967   3.277   5.852 -0.3214 -0.2481 -0.1162
    1DIPC   C4B 4812  13.113   2.970   5.637  0.0812  0.0687  0.1258
    1DIPC   NC3 4813  26.722  18.665   6.677  0.0758 -0.0811  0.2221
    1DIPC   PO4 4814  26.981  18.908   6.374  0.0641 -0.0249 -0.3385
    1DIPC   GL1 4815  27.013  19.059   5.896 -0.2106  0.1786  0.2529
    1DIPC   GL2 4816  26.731  19.019   5.830 -0.2146 -0.0097  0.2391
    1DIPC   C1A 4817  27.091  19.037   5.442  0.0823  0.1156  0.1298
    1DIPC   D2A 4818  26.954  19.189   5.057  0.2124 -0.1672 -0.1035
    1DIPC   D3A 4819  26.881  19.544   4.885  0.1500 -0.0602  0.1481
    1DIPC   C4A 4820  26.626  19.536   4.498  0.0909 -0.0596  0.3025
    1DIPC   C1B 4821  26.488  19.075   5.374 -0.0556 -0.0719 -0.0444
    1DIPC   D2B 4822  26.221  18.935   5.003  0.0899 -0.3471 -0.2832
    1DIPC   D3B 4823  26.667  18.826   4.953 -0.2981  0.2044  0.0204
    1DIPC   C4B 4824  26.863  18.431   4.729  0.3175  0.0161  0.0101
    1DIPC   NC3 4825  13.536  25.972   6.512  0.1909 -0.0856  0.2407
    1DIPC   PO4 4826  13.941  25.888   6.287  0.0278 -0.3049 -0.1462
    1DIPC   GL1 4827  13.615  25.996   5.943  0.2314  0.1374  0.0450
    1DIPC   GL2 4828  13.391  25.862   5.907  0.1912 -0.1172  0.0460
    1DIPC   C1A 4829  13.501  26.335   5.785  0.2963  0.0556  0.1576
    1DIPC   D2A 4830  13.148  26.564   5.864  0.0402 -0.1431 -0.2659
    1DIPC   D3A 4831  13.074  26.707   5.481  0.0470  0.2076  0.4350
    1DIPC   C4A 4832  13.433  27.025   5.421  0.1660  0.2137 -0.2696
    1DIPC   C1B 4833  13.196  25.771   5.478 -0.0298  0.1838 -0.2061
    1DIPC   D2B 4834  13.027  25.557   5.085  0.0511 -0.2124 -0.0611
    1DIPC   D3B 4835  13.200  25.881   4.914  0.3144 -0.0956  0.3572
    1DIPC   C4B 4836  13.569  26.062   5.098  0.2289 -0.1790 -0.1523
    1DIPC   NC3 4837   6.212  11.474   6.600  0.2077 -0.1129 -0.0724
    1DIPC   PO4 4838   5.744  11.512   6.475  0.1835 -0.0959 -0.1985
    1DIPC   GL1 4839   5.643  11.234   6.079 -0.2415 -0.0812 -0.0161
    1DIPC   GL2 4840   5.339  11.255   5.911  0.3359 -0.1589  0.1736
    1DIPC   C1A 4841   5.952  11.178   5.763  0.0373 -0.0111  0.0642
    1DIPC   D2A 4842   5.978  11.164   5.268  0.1794 -0.2412  0.0378
    1DIPC   D3A 4843   5.897  11.408   4.873 -0.2109 -0.1797 -0.0703
    1DIPC   C4A 4844   6.024  11.144   4.672 -0.0743  0.0620  0.0170
    1DIPC   C1B 4845   5.507  11.155   5.541 -0.1674 -0.0792 -0.0547
    1DIPC   D2B 4846   5.646  10.780   5.448  0.0496 -0.0578 -0.1242
    1DIPC   D3B 4847   5.234  10.657   5.342 -0.1769  0.2900 -0.3920
    1DIPC   C4B 4848   5.092  10.785   4.906 -0.0281 -0.0796  0.0906
    1DIPC   NC3 4849   4.435  19.519   5.886 -0.1750 -0.1242 -0.0082
    1DIPC   PO4 4850   4.203  19.833   6.038 -0.2217 -0.0204 -0.3006
    1DIPC   GL1 4851   3.989  19.594   5.661  0.4343  0.0997 -0.1318
    1DIPC   GL2 4852   4.246  19.514   5.416  0.0729  0.0565  0.0188
    1DIPC   C1A 4853   3.855  19.265   5.390  0.2462  0.0458 -0.0559
    1DIPC   D2A 4854   3.730  18.913   5.138 -0.3376  0.3380  0.1286
    1DIPC   D3A 4855   3.680  19.328   4.870 -0.2109 -0.2377  0.2454
    1DIPC   C4A 4856   3.531  19.348   4.398 -0.1173 -0.1682 -0.1613
    1DIPC   C1B 4857   3.993  19.712   5.178 -0.0273  0.0786  0.1091
    1DIPC   D2B 4858   3.815  19.937   4.885 -0.1229  0.0548 -0.1426
    1DIPC   D3B 4859   3.697  19.821   4.444 -0.0669  0.2623  0.2338
    1DIPC   C4B 4860   3.858  19.620   4.111  0.0079 -0.0213 -0.1535
    1DIPC   NC3 4861  25.768  16.071   6.011 -0.2613  0.0291  0.0702
    1DIPC   PO4 4862  26.099  16.187   6.004  0.0450  0.0931  0.0290
    1DIPC   GL1 4863  25.997  16.483   5.655  0.2411 -0.3545 -0.0843
    1DIPC   GL2 4864  26.117  16.731   5.543  0.0395 -0.0605 -0.0094
    1DIPC   C1A 4865  26.005  16.390   5.200 -0.1034 -0.1455 -0.4338
    1DIPC   D2A 4866  25.751  16.249   4.961  0.1076  0.1912  0.1256
    1DIPC   D3A 4867  25.724  16.120   4.500  0.1748 -0.2686  0.0254
    1DIPC   C4A 4868  25.433  16.181   4.231 -0.0336 -0.0888  0.0938
    1DIPC   C1B 4869  26.176  16.879   5.202  0.0592  0.2737 -0.0546
    1DIPC   D2B 4870  26.298  17.043   4.780 -0.2942 -0.0261 -0.0929
    1DIPC   D3B 4871  26.684  16.985   4.573  0.2127  0.0337 -0.1369
    1DIPC   C4B 4872  26.907  17.355   4.497  0.0300 -0.1442  0.0981
    1DIPC   NC3 4873   7.466   5.182   7.206  0.1659  0.0857  0.0853
    1DIPC   PO4 4874   7.124   5.317   7.024 -0.0382 -0.0187 -0.2451
    1DIPC   GL1 4875   7.296   5.294   6.665  0.0019  0.0190 -0.2801
    1DIPC   GL2 4876   7.586   5.095   6.715  0.0579  0.4240  0.0830
    1DIPC   C1A 4877   7.513   5.691   6.545 -0.2320 -0.2175 -0.3257
    1DIPC   D2A 4878   7.882   5.918   6.434 -0.3273  0.0522 -0.1622
    1DIPC   D3A 4879   8.047   6.148   6.102  0.1914 -0.1347 -0.1954
    1DIPC   C4A 4880   8.361   6.173   5.933 -0.0669 -0.0610  0.3972
    1DIPC   C1B 4881   7.877   5.373   6.370 -0.0032 -0.2162 -0.0046
    1DIPC   D2B 4882   8.101   5.634   6.077 -0.2197  0.0522  0.1868
    1DIPC   D3B 4883   8.093   5.773   5.617  0.0145  0.2456  0.1843
    1DIPC   C4B 4884   7.864   5.984   5.359 -0.3490 -0.0469  0.0759
    1DIPC   NC3 4885  20.767   3.032   6.917  0.0087 -0.0102 -0.0435
    1DIPC   PO4 4886  20.720   2.702   6.574 -0.1679  0.3243 -0.1634
    1DIPC   GL1 4887  20.728   2.783   6.100  0.2728  0.2361 -0.0769
    1DIPC   GL2 4888  20.502   3.069   6.094  0.1036 -0.0747  0.0462
    1DIPC   C1A 4889  20.872   2.796   5.713 -0.1417 -0.1156  0.1869
    1DIPC   D2A 4890  21.082   2.619   5.333 -0.4127 -0.1151 -0.1751
    1DIPC   D3A 4891  20.816   2.477   5.055  0.2347 -0.1820  0.1758
    1DIPC   C4A 4892  20.879   2.122   4.754  0.2267  0.1945 -0.3935
    1DIPC   C1B 4893  20.409   3.074   5.639  0.1054 -0.3515  0.2087
    1DIPC   D2B 4894  20.632   2.941   5.190  0.1428  0.1700 -0.0771
    1DIPC   D3B 4895  21.025   2.897   4.871 -0.0563 -0.0831  0.2324
    1DIPC   C4B 4896  21.047   2.520   4.594 -0.0582  0.2712  0.0656
    1DIPC   NC3 4897  28.049  27.472   6.846  0.0694 -0.3511  0.4937
    1DIPC   PO4 4898  27.669  27.480   6.495 -0.0189  0.1275 -0.2878
    1DIPC   GL1 4899  27.822  27.394   6.071  0.1166 -0.0982 -0.1569
    1DIPC   GL2 4900  27.763  27.676   5.975 -0.1505  0.0806  0.0823
    1DIPC   C1A 4901  27.934  27.231   5.753  0.1883 -0.0668  0.3297
    1DIPC   D2A 4902  27.851  27.430   5.451 -0.0559  0.0269  0.2037
    1DIPC   D3A 4903  27.542  27.462   5.184  0.2634  0.1744  0.1842
    1DIPC   C4A 4904  27.433  27.446   4.703 -0.0824  0.0583 -0.2918
    1DIPC   C1B 4905  27.524  27.712   5.646  0.2282  0.0461  0.2526
    1DIPC   D2B 4906  27.051  27.823   5.572 -0.2868  0.2749 -0.1488
    1DIPC   D3B 4907  27.113  27.755   5.221 -0.2684  0.5050 -0.0039
    1DIPC   C4B 4908  27.443  27.960   4.930 -0.2272  0.2690  0.1243
    1DIPC   NC3 4909   5.672  19.535   6.582  0.0281  0.0173  0.2568
    1DIPC   PO4 4910   5.921  19.572   6.182 -0.0219  0.1465  0.1193
    1DIPC   GL1 4911   5.721  19.601   5.703 -0.0752 -0.2469  0.1534
    1DIPC   GL2 4912   5.335  19.691   5.663 -0.3118 -0.0867  0.4733
    1DIPC   C1A 4913   5.626  19.598   5.281  0.0405  0.0161 -0.0907
    1DIPC   D2A 4914   5.571  19.826   4.859  0.1897 -0.1085 -0.3276
    1DIPC   D3A 4915   5.867  19.897   4.551 -0.2060  0.1379 -0.0606
    1DIPC   C4A 4916   6.220  20.133   4.722  0.1317  0.2586  0.1055
    1DIPC   C1B 4917   5.202  19.813   5.323 -0.0586  0.1801  0.2183
    1DIPC   D2B 4918   5.134  20.143   5.130 -0.0077  0.2854  0.1168
    1DIPC   D3B 4919   5.312  20.246   4.778  0.1482  0.0313 -0.0616
    1DIPC   C4B 4920   5.338  20.003   4.431 -0.1766 -0.0139 -0.1300
    1DIPC   NC3 4921  20.271  20.333   6.997  0.2383  0.1355 -0.0162
    1DIPC   PO4 4922  20.761  20.404   6.974 -0.0596 -0.2111 -0.0802
    1DIPC   GL1 4923  20.944  20.350   6.529 -0.3503  0.1671 -0.0285
    1DIPC   GL2 4924  21.147  20.010   6.414 -0.3333 -0.1545 -0.1561
    1DIPC   C1A 4925  20.954  20.492   6.147  0.1916  0.1326 -0.3385
    1DIPC   D2A 4926  20.762  20.811   6.038  0.1392 -0.2257 -0.0631
    1DIPC   D3A 4927  20.602  20.746   5.677 -0.1792 -0.1630  0.1025
    1DIPC   C4A 4928  20.175  20.653   5.345 -0.4257 -0.1054  0.0186
    1DIPC   C1B 4929  21.103  20.089   5.935 -0.1052  0.0856 -0.1607
    1DIPC   D2B 4930  20.914  20.364   5.611  0.1197  0.1204  0.2613
    1DIPC   D3B 4931  20.969  20.051   5.293  0.3198  0.1708  0.2462
    1DIPC   C4B 4932  20.596  19.893   5.123  0.0962  0.2086  0.1819
    1DIPC   NC3 4933  25.798   3.091   6.641 -0.0792  0.1965 -0.1467
    1DIPC   PO4 4934  26.298   2.941   6.590  0.1644  0.1264  0.1437
    1DIPC   GL1 4935  26.199   2.792   6.181  0.1408 -0.1706 -0.0740
    1DIPC   GL2 4936  25.918   2.900   6.116 -0.0987  0.1972 -0.4103
    1DIPC   C1A 4937  26.006   2.464   5.924 -0.0120 -0.0864 -0.3866
    1DIPC   D2A 4938  25.795   2.321   5.608 -0.1581 -0.2259 -0.0617
    1DIPC   D3A 4939  25.914   2.644   5.398 -0.5037  0.0288 -0.4415
    1DIPC   C4A 4940  25.820   2.708   4.965  0.1602 -0.3077  0.1525
    1DIPC   C1B 4941  25.710   2.876   5.744  0.1722  0.3060  0.0674
    1DIPC   D2B 4942  25.379   2.566   5.835 -0.2772 -0.3310  0.3940
    1DIPC   D3B 4943  25.336   2.711   5.362  0.0470 -0.1452  0.2075
    1DIPC   C4B 4944  24.999   2.699   5.134 -0.0115 -0.1170 -0.0049
    1DIPC   NC3 4945  20.083  20.853   7.362 -0.1243 -0.1082  0.2428
    1DIPC   PO4 4946  20.307  20.869   7.025 -0.2097 -0.1911 -0.0937
    1DIPC   GL1 4947  20.254  20.745   6.666  0.1830  0.0104  0.0024
    1DIPC   GL2 4948  20.350  20.483   6.451 -0.0069 -0.2174 -0.0664
    1DIPC   C1A 4949  20.122  20.917   6.331  0.1600  0.0109  0.0258
    1DIPC   D2A 4950  20.121  20.907   5.897  0.1821  0.0474 -0.2215
    1DIPC   D3A 4951  20.199  21.087   5.557 -0.0061  0.1590 -0.0739
    1DIPC   C4A 4952  20.253  21.481   5.391  0.0181 -0.0659 -0.1225
    1DIPC   C1B 4953  19.979  20.467   6.192  0.3102 -0.1790  0.1633
    1DIPC   D2B 4954  19.560  20.623   6.182 -0.0776 -0.2056 -0.2243
    1DIPC   D3B 4955  19.560  20.191   6.182  0.0506 -0.0872 -0.1006
    1DIPC   C4B 4956  19.439  20.112   5.783 -0.0443 -0.2463 -0.2046
    1DIPC   NC3 4957   4.715  12.898   6.437 -0.0083 -0.1941 -0.1860
    1DIPC   PO4 4958   4.338  13.222   6.249  0.0180  0.0589  0.0938
    1DIPC   GL1 4959   4.311  13.296   5.868 -0.1381  0.1501  0.1755
    1DIPC   GL2 4960   4.055  13.613   5.743  0.0676 -0.0618 -0.0153
    1DIPC   C1A 4961   4.109  13.124   5.496 -0.1039  0.1105 -0.2820
    1DIPC   D2A 4962   3.952  12.911   5.020  0.0108  0.0365 -0.0283
    1DIPC   D3A 4963   4.372  12.995   4.807  0.3456 -0.1019  0.1247
    1DIPC   C4A 4964   4.687  13.211   4.555  0.1435  0.0174 -0.0342
    1DIPC   C1B 4965   4.085  13.911   5.443 -0.0944  0.4013  0.3562
    1DIPC   D2B 4966   4.130  13.991   4.928 -0.2645 -0.0515 -0.1105
    1DIPC   D3B 4967   4.390  14.231   5.120  0.1013  0.1901 -0.1056
    1DIPC   C4B 4968   4.638  14.650   5.042 -0.1469 -0.0341  0.1165
    1DIPC   NC3 4969  12.079  25.188   6.717 -0.3850  0.1278  0.1362
    1DIPC   PO4 4970  12.073  25.283   6.340 -0.3485 -0.0521  0.0324
    1DIPC   GL1 4971  12.022  25.469   5.962 -0.5089  0.0155  0.0097
    1DIPC   GL2 4972  12.371  25.678   5.941  0.2832  0.2961 -0.2621
    1DIPC   C1A 4973  11.714  25.425   5.588 -0.3419 -0.3412  0.1836
    1DIPC   D2A 4974  11.426  25.536   5.399 -0.5567 -0.0604 -0.0066
    1DIPC   D3A 4975  11.481  25.434   4.988  0.0596  0.0264  0.0351
    1DIPC   C4A 4976  11.554  25.688   4.628  0.1735 -0.1610  0.0046
    1DIPC   C1B 4977  12.172  25.748   5.555  0.0520 -0.0362 -0.2507
    1DIPC   D2B 4978  11.841  25.876   5.319  0.0791 -0.4185 -0.0661
    1DIPC   D3B 4979  11.961  25.638   5.027  0.2346 -0.0008  0.0238
    1DIPC   C4B 4980  12.139  25.537   4.626  0.0911  0.2295 -0.3444
    1DIPC   NC3 4981  14.826   0.987   7.165  0.0895 -0.1584  0.1739
    1DIPC   PO4 4982  14.928   1.396   7.187  0.1936  0.1193 -0.4127
    1DIPC   GL1 4983  14.701   1.437   6.775  0.3155 -0.1020 -0.2747
    1DIPC   GL2 4984  14.869   1.215   6.697 -0.0615  0.1514  0.0705
    1DIPC   C1A 4985  14.916   1.605   6.391  0.3037  0.1277  0.1930
    1DIPC   D2A 4986  15.146   1.378   6.090 -0.1447 -0.1105 -0.2973
    1DIPC   D3A 4987  15.066   1.776   5.904 -0.1427 -0.1742 -0.2008
    1DIPC   C4A 4988  15.075   1.927   5.453 -0.3311 -0.0671 -0.0960
    1DIPC   C1B 4989  15.290   1.066   6.503 -0.3160  0.5409 -0.0838
    1DIPC   D2B 4990  15.585   1.268   6.214  0.1492 -0.0118  0.0694
    1DIPC   D3B 4991  15.692   0.911   6.094 -0.2643 -0.1925  0.2607
    1DIPC   C4B 4992  15.744   0.683   5.750 -0.1515 -0.0357 -0.0996
    1DIPC   NC3 4993  26.921   8.671   6.209 -0.1038 -0.0737  0.2491
    1DIPC   PO4 4994  27.302   8.812   6.213  0.3570  0.0400 -0.1769
    1DIPC   GL1 4995  27.450   8.745   5.851 -0.2466  0.2348 -0.4671
    1DIPC   GL2 4996  27.259   8.541   5.699 -0.3784  0.1590  0.0399
    1DIPC   C1A 4997  27.707   8.614   5.593 -0.1184 -0.1059 -0.1318
    1DIPC   D2A 4998  27.839   8.500   5.128 -0.1424  0.2177 -0.2691
    1DIPC   D3A 4999  27.873   8.995   5.186 -0.2761 -0.1896  0.1724
    1DIPC   C4A 5000  28.124   9.321   5.239 -0.3721 -0.0431 -0.2637
    1DIPC   C1B 5001  27.301   8.464   5.250 -0.0283 -0.0074  0.0330
    1DIPC   D2B 5002  27.380   8.511   4.899  0.1835 -0.2494 -0.2134
    1DIPC   D3B 5003  27.601   8.827   4.792  0.0797 -0.0491  0.1817
    1DIPC   C4B 5004  27.458   9.036   4.518 -0.0520  0.1019  0.0273
    1DIPC   NC3 5005   1.841   3.612   6.985  0.0344 -0.0434  0.3900
    1DIPC   PO4 5006   1.590   3.422   6.599  0.0580  0.0648  0.2715
    1DIPC   GL1 5007   1.726   3.274   6.184  0.1987  0.0412  0.2607
    1DIPC   GL2 5008   1.908   3.013   6.197 -0.2759  0.0916  0.2068
    1DIPC   C1A 5009   1.702   3.060   5.739 -0.1057 -0.2028 -0.0312
    1DIPC   D2A 5010   1.963   3.208   5.328 -0.1522  0.0889  0.4327
    1DIPC   D3A 5011   1.748   3.524   5.335  0.0305  0.0877 -0.1368
    1DIPC   C4A 5012   1.851   3.960   5.209  0.0561  0.4050 -0.1398
    1DIPC   C1B 5013   1.604   2.625   6.034 -0.1511 -0.0312  0.0048
    1DIPC   D2B 5014   1.671   2.252   5.917 -0.0717 -0.2654  0.2217
    1DIPC   D3B 5015   1.716   2.247   5.477 -0.0526 -0.0568 -0.2384
    1DIPC   C4B 5016   1.534   2.406   5.178 -0.3215 -0.0580  0.1351
    1DIPC   NC3 5017  18.131  29.529   6.632 -0.1982  0.2118 -0.0132
    1DIPC   PO4 5018  18.411  29.889   6.454 -0.0718 -0.2086  0.0154
    1DIPC   GL1 5019  18.659  29.953   6.104 -0.0469  0.2504 -0.2621
    1DIPC   GL2 5020  18.462  29.979   5.904  0.1069 -0.3085  0.1511
    1DIPC   C1A 5021  19.070  29.993   5.889  0.0158 -0.1014  0.1441
    1DIPC   D2A 5022  19.326  29.790   5.579 -0.1007 -0.2853 -0.1642
    1DIPC   D3A 5023  19.370  30.230   5.447 -0.2239 -0.1361  0.0672
    1DIPC   C4A 5024  19.018  30.627   5.423  0.0747 -0.0588 -0.1630
    1DIPC   C1B 5025  18.616  29.903   5.554  0.0786  0.3849 -0.2219
    1DIPC   D2B 5026  18.696  29.785   5.078  0.1350  0.1008  0.0844
    1DIPC   D3B 5027  18.973  30.043   5.241  0.0829  0.0379  0.0891
    1DIPC   C4B 5028  19.198  30.371   4.962 -0.2827 -0.1102  0.1515
    1DIPC   NC3 5029   6.199  20.565   6.119  0.0399  0.4251 -0.0322
    1DIPC   PO4 5030   6.589  20.724   6.132 -0.2314  0.1196 -0.0208
    1DIPC   GL1 5031   6.525  20.725   5.603 -0.0690 -0.2528  0.1373
    1DIPC   GL2 5032   6.732  20.762   5.339 -0.1880  0.2381 -0.1379
    1DIPC   C1A 5033   6.177  20.912   5.166  0.0331  0.1326  0.2445
    1DIPC   D2A 5034   5.755  20.807   5.020 -0.1916  0.1149  0.0561
    1DIPC   D3A 5035   5.428  20.807   4.752  0.3072 -0.0923  0.1901
    1DIPC   C4A 5036   5.013  21.053   4.594  0.1644 -0.2109  0.2311
    1DIPC   C1B 5037   6.617  20.642   4.929 -0.1380  0.0648 -0.2827
    1DIPC   D2B 5038   6.184  20.732   4.744  0.1245 -0.2102  0.0675
    1DIPC   D3B 5039   6.427  20.593   4.393  0.0234 -0.3432 -0.1931
    1DIPC   C4B 5040   6.307  20.572   3.996 -0.2023 -0.0482 -0.0403
    1DIPC   NC3 5041  13.976  26.203   7.246  0.1398 -0.0860 -0.0327
    1DIPC   PO4 5042  13.885  26.268   6.742 -0.1485 -0.1176 -0.0733
    1DIPC   GL1 5043  14.126  26.413   6.356 -0.1582  0.2579  0.4432
    1DIPC   GL2 5044  13.938  26.368   6.043 -0.4962 -0.0124 -0.0978
    1DIPC   C1A 5045  14.415  26.272   6.023 -0.1408 -0.0301  0.0308
    1DIPC   D2A 5046  14.832  26.446   5.758 -0.2389 -0.1424  0.0596
    1DIPC   D3A 5047  14.969  26.756   5.392 -0.1094 -0.0650  0.5044
    1DIPC   C4A 5048  14.639  26.787   5.098 -0.2820 -0.0520 -0.0384
    1DIPC   C1B 5049  14.015  26.376   5.660 -0.0036 -0.0014  0.0583
    1DIPC   D2B 5050  14.014  26.332   5.228  0.4091 -0.0518  0.0990
    1DIPC   D3B 5051  14.249  26.506   4.904  0.1556  0.1905 -0.3494
    1DIPC   C4B 5052  14.138  26.573   4.402  0.1935 -0.2660  0.3609
    1DIPC   NC3 5053  10.198  26.634   6.591 -0.1416 -0.0423  0.2512
    1DIPC   PO4 5054  10.598  26.919   6.586  0.0595 -0.0686  0.1357
    1DIPC   GL1 5055  10.456  27.071   6.133 -0.0466  0.0168  0.3375
    1DIPC   GL2 5056  10.090  26.915   6.083  0.2848  0.3321  0.1862
    1DIPC   C1A 5057  10.361  27.182   5.690 -0.3192  0.0274  0.0307
    1DIPC   D2A 5058  10.341  27.143   5.249 -0.0625  0.0345  0.1546
    1DIPC   D3A 5059  10.718  27.457   5.338 -0.4573  0.1191  0.1807
    1DIPC   C4A 5060  11.088  27.479   5.021  0.0888  0.1114  0.0772
    1DIPC   C1B 5061  10.178  26.732   5.731 -0.1087  0.1019  0.0500
    1DIPC   D2B 5062  10.456  26.622   5.353  0.0280  0.1147 -0.4177
    1DIPC   D3B 5063  10.374  26.707   4.964  0.3599 -0.0192  0.1262
    1DIPC   C4B 5064   9.982  26.514   4.747  0.0659  0.0384  0.1460
    1DIPC   NC3 5065  10.675  27.332   6.873 -0.0185  0.4601 -0.1269
    1DIPC   PO4 5066  11.030  27.556   6.701 -0.3328  0.1687  0.0425
    1DIPC   GL1 5067  11.190  27.789   6.323  0.2567 -0.3853 -0.2148
    1DIPC   GL2 5068  11.180  27.664   6.081 -0.2167 -0.3238  0.0797
    1DIPC   C1A 5069  11.205  28.172   6.128 -0.0365 -0.1071 -0.2244
    1DIPC   D2A 5070  11.403  28.550   6.121  0.0293 -0.0023 -0.0510
    1DIPC   D3A 5071  11.150  28.394   5.691 -0.2911  0.0950  0.0317
    1DIPC   C4A 5072  10.750  28.517   5.588 -0.2753 -0.0864  0.0233
    1DIPC   C1B 5073  10.781  27.876   5.936  0.0394  0.0053 -0.0999
    1DIPC   D2B 5074  10.554  27.975   5.539  0.3062  0.2119 -0.0639
    1DIPC   D3B 5075  10.384  28.380   5.173  0.2433  0.1605  0.0012
    1DIPC   C4B 5076  10.339  28.817   5.370  0.4409 -0.0177 -0.1229
    1DIPC   NC3 5077  29.031   6.896   6.350  0.3425  0.0616  0.0560
    1DIPC   PO4 5078  28.928   7.276   6.342 -0.1801 -0.2184  0.2903
    1DIPC   GL1 5079  29.012   7.077   5.908 -0.2263 -0.2204  0.1195
    1DIPC   GL2 5080  29.296   7.089   5.973  0.4024 -0.2152  0.0811
    1DIPC   C1A 5081  29.247   7.038   5.373  0.3471  0.0743  0.1975
    1DIPC   D2A 5082  29.135   7.060   4.953  0.0945  0.0895 -0.1801
    1DIPC   D3A 5083  28.760   7.189   5.006 -0.0685  0.3720 -0.2918
    1DIPC   C4A 5084  28.744   7.214   5.449 -0.0018  0.0527  0.1528
    1DIPC   C1B 5085  29.473   6.708   5.729  0.1989  0.1356  0.0216
    1DIPC   D2B 5086  29.436   6.356   5.429 -0.1415 -0.2477 -0.0724
    1DIPC   D3B 5087  29.728   6.322   4.953  0.1550 -0.2782  0.3408
    1DIPC   C4B 5088  29.492   6.343   4.610  0.0714  0.1756  0.0687
    1DIPC   NC3 5089  23.634   8.103   6.886 -0.2712 -0.1528 -0.1698
    1DIPC   PO4 5090  23.585   8.298   6.441 -0.0496  0.1948 -0.0008
    1DIPC   GL1 5091  23.720   8.247   6.083 -0.1750 -0.3793  0.0828
    1DIPC   GL2 5092  23.976   8.083   5.928  0.1002  0.2895 -0.2426
    1DIPC   C1A 5093  23.602   8.359   5.645 -0.3749 -0.0284  0.0998
    1DIPC   D2A 5094  23.202   8.598   5.481  0.1659 -0.1166  0.0978
    1DIPC   D3A 5095  23.071   8.924   5.606 -0.2284  0.1750 -0.2316
    1DIPC   C4A 5096  22.825   9.192   5.411 -0.0410  0.1544  0.0357
    1DIPC   C1B 5097  23.957   8.001   5.563 -0.1818 -0.0187 -0.1999
    1DIPC   D2B 5098  23.982   8.060   5.103 -0.0244  0.0909  0.3025
    1DIPC   D3B 5099  23.590   8.390   5.087  0.0467 -0.2315 -0.2397
    1DIPC   C4B 5100  23.579   8.872   5.325 -0.2205  0.2554 -0.1396
    1DIPC   NC3 5101   2.783  26.084   5.987  0.0015  0.0844 -0.2984
    1DIPC   PO4 5102   2.384  26.270   5.941  0.0521 -0.0351  0.0236
    1DIPC   GL1 5103   2.730  26.372   5.552  0.3976 -0.0154 -0.1266
    1DIPC   GL2 5104   2.521  26.128   5.446 -0.4826  0.0945 -0.5528
    1DIPC   C1A 5105   2.820  26.219   5.074 -0.0213  0.0210 -0.1901
    1DIPC   D2A 5106   3.020  26.080   4.658  0.0473 -0.2863 -0.0148
    1DIPC   D3A 5107   3.032  26.504   4.711 -0.3207  0.0909 -0.0141
    1DIPC   C4A 5108   3.358  26.838   4.665  0.4049  0.1321 -0.0073
    1DIPC   C1B 5109   2.377  26.423   5.136  0.0128 -0.0838  0.4149
    1DIPC   D2B 5110   2.448  26.706   4.841 -0.0648  0.1777 -0.1493
    1DIPC   D3B 5111   2.186  26.435   4.609 -0.1837  0.0516 -0.0498
    1DIPC   C4B 5112   1.797  26.315   4.542  0.2412  0.2026  0.0131
    1DIPC   NC3 5113   2.634  14.914   5.890  0.0293  0.0222  0.2067
    1DIPC   PO4 5114   2.774  15.156   5.773 -0.0926 -0.2780 -0.0470
    1DIPC   GL1 5115   2.945  15.054   5.401  0.0158  0.3209  0.1383
    1DIPC   GL2 5116   3.136  14.866   5.395  0.2725  0.1477  0.2636
    1DIPC   C1A 5117   2.767  14.918   5.037 -0.1316 -0.1194 -0.1812
    1DIPC   D2A 5118   2.482  15.025   4.803 -0.1903 -0.0210  0.0750
    1DIPC   D3A 5119   2.880  14.967   4.594  0.0591  0.2968 -0.1422
    1DIPC   C4A 5120   3.162  15.272   4.642 -0.1682  0.0479 -0.0190
    1DIPC   C1B 5121   3.228  14.803   4.962  0.0784 -0.0938  0.2112
    1DIPC   D2B 5122   3.369  14.786   4.521  0.1197 -0.0217  0.1700
    1DIPC   D3B 5123   3.305  15.068   4.165 -0.0581  0.0015  0.4223
    1DIPC   C4B 5124   3.353  15.581   4.239  0.0633  0.2670 -0.0022
    1DIPC   NC3 5125  26.227   9.665   6.589 -0.1492  0.1323  0.0672
    1DIPC   PO4 5126  25.904   9.359   6.411  0.1279 -0.0324  0.2678
    1DIPC   GL1 5127  25.642   9.345   6.083  0.0520  0.0199  0.0360
    1DIPC   GL2 5128  25.613   9.661   5.885 -0.1942 -0.2653  0.0272
    1DIPC   C1A 5129  25.179   9.308   6.062  0.4705 -0.2931  0.1007
    1DIPC   D2A 5130  24.913   9.115   5.750 -0.0454 -0.0365 -0.0639
    1DIPC   D3A 5131  24.589   8.817   5.610  0.0707 -0.0503  0.0067
    1DIPC   C4A 5132  24.444   8.388   5.380  0.2703  0.2780 -0.1516
    1DIPC   C1B 5133  25.431   9.931   5.657  0.0159 -0.1522 -0.2268
    1DIPC   D2B 5134  25.065   9.971   5.428 -0.3237 -0.0835 -0.2274
    1DIPC   D3B 5135  25.007   9.679   5.154  0.2664  0.0662 -0.0440
    1DIPC   C4B 5136  25.181   9.818   4.782  0.1181  0.1397  0.2271
    1DIPC   NC3 5137  27.949  23.707   5.886  0.0120 -0.0287  0.0975
    1DIPC   PO4 5138  28.376  23.390   6.152 -0.3082  0.1004  0.1869
    1DIPC   GL1 5139  28.366  23.610   5.642 -0.2221 -0.0633  0.1784
    1DIPC   GL2 5140  28.419  23.936   5.585  0.1891 -0.0206 -0.0932
    1DIPC   C1A 5141  28.509  23.581   5.246  0.0004 -0.1530 -0.3307
    1DIPC   D2A 5142  28.650  23.562   4.844 -0.3628  0.2097  0.1215
    1DIPC   D3A 5143  28.222  23.392   4.705  0.2223  0.4370  0.0093
    1DIPC   C4A 5144  28.198  23.793   4.499 -0.0581 -0.1489  0.1731
    1DIPC   C1B 5145  28.188  24.206   5.371 -0.1122 -0.1632 -0.2029
    1DIPC   D2B 5146  27.811  24.172   5.168  0.0800  0.1486  0.0313
    1DIPC   D3B 5147  27.497  24.369   5.276  0.2193 -0.1819 -0.1854
    1DIPC   C4B 5148  27.137  24.105   5.108 -0.1649 -0.1515 -0.2873
    1DIPC   NC3 5149   3.436  21.990   5.789 -0.0569  0.2768 -0.0650
    1DIPC   PO4 5150   3.791  22.239   5.761  0.1418  0.1009  0.1397
    1DIPC   GL1 5151   3.648  22.472   5.401  0.2722  0.1471  0.1508
    1DIPC   GL2 5152   3.320  22.298   5.303 -0.0650 -0.6193  0.0742
    1DIPC   C1A 5153   3.890  22.645   4.991 -0.1835 -0.1880  0.1894
    1DIPC   D2A 5154   4.234  22.697   4.771 -0.0337 -0.1252  0.2639
    1DIPC   D3A 5155   4.294  22.984   4.473  0.1930 -0.0207 -0.1032
    1DIPC   C4A 5156   3.983  23.062   4.161  0.0908  0.2047  0.0205
    1DIPC   C1B 5157   3.291  22.028   5.079 -0.0138 -0.2824  0.0441
    1DIPC   D2B 5158   3.123  21.931   4.649 -0.2490  0.1372 -0.0737
    1DIPC   D3B 5159   2.988  22.020   4.192  0.0249  0.1845 -0.1121
    1DIPC   C4B 5160   3.069  21.761   3.830  0.2833 -0.1076 -0.2332
    1DIPC   NC3 5161   1.268  16.738   6.688 -0.3833  0.0316 -0.0578
    1DIPC   PO4 5162   1.213  16.895   6.217 -0.4204  0.1183 -0.0813
    1DIPC   GL1 5163   1.235  17.148   5.801 -0.2071  0.4270 -0.0926
    1DIPC   GL2 5164   1.572  17.308   5.788  0.0503 -0.0051 -0.1456
    1DIPC   C1A 5165   1.223  17.267   5.415 -0.1206  0.2110 -0.1612
    1DIPC   D2A 5166   1.460  17.546   5.084 -0.4089 -0.0119 -0.4223
    1DIPC   D3A 5167   1.618  17.535   4.603 -0.1306  0.1147  0.1624
    1DIPC   C4A 5168   1.382  17.569   4.198 -0.3056  0.0060 -0.1008
    1DIPC   C1B 5169   1.815  17.231   5.424  0.0295  0.0663 -0.0768
    1DIPC   D2B 5170   1.951  17.354   4.998  0.0740 -0.0742  0.1589
    1DIPC   D3B 5171   2.023  16.877   4.837  0.1042  0.0329 -0.2386
    1DIPC   C4B 5172   2.375  16.863   4.590 -0.2649 -0.1156  0.2716
    1DIPC   NC3 5173   8.161  20.924   6.305 -0.0435  0.1888  0.1534
    1DIPC   PO4 5174   8.607  20.927   6.209  0.0268 -0.0669 -0.0802
    1DIPC   GL1 5175   8.438  20.888   5.733 -0.1052  0.2796 -0.0655
    1DIPC   GL2 5176   8.643  20.731   5.565 -0.1320  0.0358 -0.1445
    1DIPC   C1A 5177   8.201  20.747   5.372  0.0528  0.0324 -0.1812
    1DIPC   D2A 5178   8.295  20.398   5.015  0.0266 -0.1169  0.2827
    1DIPC   D3A 5179   8.277  20.516   4.562  0.1001  0.0055 -0.1280
    1DIPC   C4A 5180   8.283  20.216   4.181  0.0988  0.0176  0.1210
    1DIPC   C1B 5181   8.587  20.928   5.116 -0.1883 -0.0560  0.0296
    1DIPC   D2B 5182   8.403  21.004   4.788  0.1937  0.1113 -0.0905
    1DIPC   D3B 5183   8.772  20.747   4.659  0.2627  0.0430  0.1916
    1DIPC   C4B 5184   8.763  20.427   4.918 -0.0678 -0.1658 -0.0484
    1DIPC   NC3 5185   3.437  17.761   5.560  0.1357  0.2726  0.2220
    1DIPC   PO4 5186   3.796  17.382   5.505  0.2107 -0.0393 -0.0004
    1DIPC   GL1 5187   3.911  17.410   5.063 -0.0891 -0.0662 -0.0549
    1DIPC   GL2 5188   4.266  17.397   5.097  0.1271 -0.0200  0.2423
    1DIPC   C1A 5189   4.007  17.387   4.648  0.2032  0.1345 -0.1833
    1DIPC   D2A 5190   4.212  17.137   4.304  0.1437  0.1670 -0.1421
    1DIPC   D3A 5191   4.676  16.940   4.467 -0.1565 -0.2469  0.1335
    1DIPC   C4A 5192   4.722  16.635   4.759 -0.0605 -0.1834 -0.0684
    1DIPC   C1B 5193   4.529  17.134   5.084 -0.2468  0.1869  0.1874
    1DIPC   D2B 5194   4.930  16.985   5.102 -0.0503 -0.2354 -0.1363
    1DIPC   D3B 5195   5.192  16.626   4.955 -0.0067 -0.0375 -0.0824
    1DIPC   C4B 5196   5.550  16.325   5.096 -0.0393 -0.0110 -0.0604
    1DIPC   NC3 5197  28.384   6.163   6.197 -0.1858  0.2956  0.0516
    1DIPC   PO4 5198  28.766   5.933   6.294 -0.5672  0.0077 -0.2690
    1DIPC   GL1 5199  28.850   5.896   5.915 -0.1282  0.1790 -0.0902
    1DIPC   GL2 5200  28.771   6.155   5.820 -0.1369  0.0492 -0.1628
    1DIPC   C1A 5201  29.179   5.952   5.523 -0.0988  0.0151  0.1198
    1DIPC   D2A 5202  29.260   5.618   5.204 -0.2405  0.0750  0.1121
    1DIPC   D3A 5203  29.051   5.539   4.766  0.0498 -0.1862  0.1920
    1DIPC   C4A 5204  28.966   5.981   4.546 -0.0540 -0.0657  0.1257
    1DIPC   C1B 5205  28.698   6.231   5.305 -0.1236  0.0253  0.0342
    1DIPC   D2B 5206  28.729   5.973   4.994 -0.1657  0.2555  0.0885
    1DIPC   D3B 5207  28.746   5.585   5.274 -0.1043  0.0828 -0.0747
    1DIPC   C4B 5208  28.824   5.174   5.107 -0.3042  0.1080 -0.0003
    1DIPC   NC3 5209  24.883  27.540   6.641 -0.2888  0.2676 -0.1057
    1DIPC   PO4 5210  25.263  27.476   6.558 -0.1258 -0.1167  0.2571
    1DIPC   GL1 5211  25.129  27.540   6.204 -0.2653  0.0808  0.1562
    1DIPC   GL2 5212  24.846  27.320   6.151  0.0322 -0.0591 -0.0378
    1DIPC   C1A 5213  25.030  27.725   5.814 -0.2691  0.0127 -0.1014
    1DIPC   D2A 5214  24.827  27.813   5.343  0.0212 -0.1362  0.0339
    1DIPC   D3A 5215  24.543  28.068   5.012 -0.0390  0.2330  0.0575
    1DIPC   C4A 5216  24.240  28.182   4.807  0.2007  0.2995 -0.0709
    1DIPC   C1B 5217  24.669  27.374   5.898  0.2144  0.2683 -0.0168
    1DIPC   D2B 5218  24.572  27.427   5.472  0.0984  0.0881  0.0915
    1DIPC   D3B 5219  24.182  27.312   5.454  0.1137  0.0240  0.2114
    1DIPC   C4B 5220  23.821  27.295   5.119 -0.0843 -0.1781  0.0077
    1DIPC   NC3 5221   9.930   4.736   6.800 -0.1463  0.1218 -0.2007
    1DIPC   PO4 5222   9.921   4.245   7.030  0.1186 -0.0003  0.1962
    1DIPC   GL1 5223   9.811   4.031   6.655  0.1754  0.2702  0.0667
    1DIPC   GL2 5224   9.479   3.986   6.619 -0.4168  0.1309  0.0741
    1DIPC   C1A 5225   9.767   3.829   6.217  0.1432 -0.0946  0.1160
    1DIPC   D2A 5226   9.561   3.738   5.755  0.0830  0.1886 -0.5120
    1DIPC   D3A 5227   9.465   3.180   5.971 -0.2077 -0.1857  0.2553
    1DIPC   C4A 5228   9.152   2.799   5.937 -0.2781  0.0398  0.2814
    1DIPC   C1B 5229   9.294   3.949   6.158  0.4029  0.2585  0.0308
    1DIPC   D2B 5230   9.178   4.161   5.766 -0.2106 -0.0654 -0.2306
    1DIPC   D3B 5231   9.379   3.991   5.390 -0.1761 -0.0633 -0.4012
    1DIPC   C4B 5232   9.463   4.404   5.217 -0.2432 -0.0596 -0.1719
    1DIPC   NC3 5233  20.318   3.095   6.562  0.0495 -0.0647  0.0855
    1DIPC   PO4 5234  20.139   2.734   6.348 -0.3133 -0.3826  0.2239
    1DIPC   GL1 5235  20.206   2.624   5.924  0.1500 -0.0137 -0.1590
    1DIPC   GL2 5236  20.453   2.435   5.863  0.5287 -0.0892 -0.0625
    1DIPC   C1A 5237  20.335   2.584   5.437 -0.0274  0.4149 -0.0687
    1DIPC   D2A 5238  20.023   2.443   5.137 -0.3227 -0.0333 -0.2067
    1DIPC   D3A 5239  19.821   2.575   4.904 -0.2127 -0.0178 -0.0533
    1DIPC   C4A 5240  19.955   2.857   4.634 -0.0958  0.0602  0.1682
    1DIPC   C1B 5241  20.753   2.262   5.538  0.0336 -0.1663  0.0327
    1DIPC   D2B 5242  20.974   2.043   5.290 -0.1381 -0.2364  0.1717
    1DIPC   D3B 5243  20.568   1.972   5.099  0.0174 -0.2287  0.1472
    1DIPC   C4B 5244  20.427   1.818   4.693  0.0600 -0.0212  0.1208
    1DIPC   NC3 5245   8.606  21.353   5.950 -0.1850 -0.1974  0.2238
    1DIPC   PO4 5246   8.188  21.288   5.961 -0.5214  0.0874 -0.0892
    1DIPC   GL1 5247   8.141  21.328   5.553  0.0733  0.1316  0.2964
    1DIPC   GL2 5248   7.871  21.608   5.510 -0.3414 -0.0800 -0.0167
    1DIPC   C1A 5249   8.285  21.467   5.172 -0.4298 -0.0279 -0.0912
    1DIPC   D2A 5250   8.409  21.662   4.751 -0.2517  0.1819  0.1103
    1DIPC   D3A 5251   8.347  21.501   4.283  0.0147  0.0967 -0.0274
    1DIPC   C4A 5252   8.478  21.060   4.110 -0.2034  0.2154  0.1030
    1DIPC   C1B 5253   7.753  21.571   5.108 -0.4919 -0.0946  0.1135
    1DIPC   D2B 5254   7.479  21.544   4.768 -0.1559 -0.2782 -0.0004
    1DIPC   D3B 5255   7.925  21.375   4.686  0.0369  0.1618  0.4031
    1DIPC   C4B 5256   8.032  21.042   4.422 -0.2347 -0.0207 -0.2767
    1DIPC   NC3 5257   8.776  27.036   6.589 -0.1043 -0.0792  0.2227
    1DIPC   PO4 5258   9.160  27.164   6.572 -0.0798  0.0178  0.5154
    1DIPC   GL1 5259   9.382  27.133   6.187 -0.0014  0.0832 -0.0469
    1DIPC   GL2 5260   9.714  27.199   6.256 -0.1114 -0.0181  0.1832
    1DIPC   C1A 5261   9.271  27.227   5.717  0.0065  0.1623  0.0447
    1DIPC   D2A 5262   9.355  27.329   5.431  0.0994  0.2208  0.1924
    1DIPC   D3A 5263   9.862  27.274   5.298 -0.1690  0.2377 -0.1389
    1DIPC   C4A 5264  10.083  27.612   5.100  0.0662  0.2009  0.1578
    1DIPC   C1B 5265  10.015  27.384   6.145 -0.0195  0.0400  0.0413
    1DIPC   D2B 5266  10.324  27.600   5.990 -0.0671  0.1847 -0.0467
    1DIPC   D3B 5267  10.146  27.636   5.602 -0.1690 -0.0414  0.0345
    1DIPC   C4B 5268  10.005  28.043   5.302 -0.1651 -0.2532  0.0513
    1DIPC   NC3 5269   1.715   6.635   6.857  0.0287 -0.1035  0.2002
    1DIPC   PO4 5270   2.076   6.770   6.703 -0.1314  0.0511 -0.1585
    1DIPC   GL1 5271   1.981   6.623   6.230 -0.3552 -0.0373 -0.3192
    1DIPC   GL2 5272   1.618   6.656   6.313  0.1779 -0.2374  0.0462
    1DIPC   C1A 5273   2.076   6.934   5.891 -0.4655 -0.2214  0.1880
    1DIPC   D2A 5274   2.216   7.364   5.983 -0.2398 -0.1605 -0.0734
    1DIPC   D3A 5275   2.636   7.454   6.017  0.0448 -0.0575 -0.0700
    1DIPC   C4A 5276   2.926   7.445   5.608 -0.1258  0.2643 -0.2234
    1DIPC   C1B 5277   1.632   6.626   5.878  0.0390 -0.2185 -0.2690
    1DIPC   D2B 5278   1.423   6.435   5.525  0.5549  0.2038 -0.1375
    1DIPC   D3B 5279   1.727   6.630   5.140 -0.2425 -0.1941  0.1234
    1DIPC   C4B 5280   1.532   6.789   4.867 -0.1048 -0.0404  0.2800
    1DIPC   NC3 5281  22.423  11.083   6.295  0.1825  0.0038 -0.0004
    1DIPC   PO4 5282  22.098  11.247   6.021  0.3635 -0.0150  0.2561
    1DIPC   GL1 5283  22.034  11.132   5.637 -0.0241  0.1276  0.1742
    1DIPC   GL2 5284  22.214  10.807   5.421  0.1961  0.0131  0.2801
    1DIPC   C1A 5285  21.803  11.077   5.239  0.1162 -0.1991 -0.0116
    1DIPC   D2A 5286  21.932  11.020   4.852  0.2139  0.2742 -0.0429
    1DIPC   D3A 5287  21.702  11.023   4.447  0.1124  0.2084 -0.1432
    1DIPC   C4A 5288  21.855  11.016   4.001 -0.2870 -0.0084 -0.2279
    1DIPC   C1B 5289  22.197  10.534   5.118  0.1415  0.0120  0.1103
    1DIPC   D2B 5290  22.212  10.562   4.626  0.0442  0.2222  0.1912
    1DIPC   D3B 5291  22.155  10.221   4.323  0.1178 -0.1131  0.2328
    1DIPC   C4B 5292  22.456  10.186   4.023  0.1672  0.2799  0.3271
    1DIPC   NC3 5293  10.378   4.164   7.313 -0.0175 -0.0564 -0.0824
    1DIPC   PO4 5294  10.762   3.787   7.317 -0.0761 -0.2004 -0.2307
    1DIPC   GL1 5295  10.773   3.695   6.793  0.1756 -0.1551  0.1290
    1DIPC   GL2 5296  10.825   3.955   6.615 -0.2668  0.2275  0.1792
    1DIPC   C1A 5297  10.688   3.345   6.628 -0.0916  0.2095 -0.0372
    1DIPC   D2A 5298  10.764   3.236   6.170  0.2128 -0.1272  0.0093
    1DIPC   D3A 5299  10.724   3.586   5.790 -0.1079 -0.0816 -0.0416
    1DIPC   C4A 5300  10.768   4.016   5.895 -0.0510 -0.1267  0.0851
    1DIPC   C1B 5301  10.749   3.733   6.326 -0.2142 -0.3641  0.2054
    1DIPC   D2B 5302  10.330   3.531   6.197 -0.1037  0.0060 -0.0096
    1DIPC   D3B 5303   9.924   3.341   6.146 -0.1946  0.4021  0.0619
    1DIPC   C4B 5304   9.999   3.079   5.958 -0.2131  0.0041  0.3949
    1DIPC   NC3 5305   1.037   6.522   6.397 -0.0514  0.2329  0.1404
    1DIPC   PO4 5306   1.386   6.223   6.558 -0.1963  0.2573 -0.0166
    1DIPC   GL1 5307   1.643   6.191   6.188 -0.0911  0.0244 -0.0108
    1DIPC   GL2 5308   1.980   6.071   6.127  0.1991 -0.3167 -0.0171
    1DIPC   C1A 5309   1.669   6.060   5.755  0.2318 -0.0381 -0.0940
    1DIPC   D2A 5310   2.161   5.881   5.636  0.0941  0.2765 -0.0703
    1DIPC   D3A 5311   2.102   5.725   5.173 -0.4011  0.2316  0.0970
    1DIPC   C4A 5312   2.461   5.715   4.957 -0.2170 -0.0283 -0.0367
    1DIPC   C1B 5313   2.149   6.305   5.851 -0.0249  0.3269  0.0896
    1DIPC   D2B 5314   2.083   6.564   5.595 -0.1788 -0.0817  0.1827
    1DIPC   D3B 5315   1.975   6.265   5.392  0.0139 -0.1914  0.0600
    1DIPC   C4B 5316   1.611   5.971   5.175  0.0914  0.1290 -0.0153
    1DIPC   NC3 5317   0.583   5.823   6.639 -0.0291  0.4927  0.0242
    1DIPC   PO4 5318   0.680   6.183   6.475 -0.1672  0.0637 -0.1382
    1DIPC   GL1 5319   0.607   6.344   5.999 -0.1137 -0.0575 -0.0120
    1DIPC   GL2 5320   0.680   5.996   5.961  0.4819  0.0903  0.0193
    1DIPC   C1A 5321   0.541   6.621   5.643  0.1716 -0.0561 -0.0263
    1DIPC   D2A 5322   0.597   6.813   5.080  0.0773  0.2654  0.0911
    1DIPC   D3A 5323   0.805   6.487   5.232 -0.1800 -0.0893 -0.1630
    1DIPC   C4A 5324   1.004   6.448   5.719  0.0372  0.0173 -0.0215
    1DIPC   C1B 5325   0.690   6.034   5.578  0.0961  0.3120 -0.0659
    1DIPC   D2B 5326   0.815   5.929   5.159  0.1079  0.0700  0.1972
    1DIPC   D3B 5327   1.102   6.102   5.304 -0.5505 -0.0206  0.2757
    1DIPC   C4B 5328   1.275   6.416   5.031  0.0456  0.1015 -0.2603
    1DIPC   NC3 5329  19.021  19.745   6.851 -0.1098  0.1602  0.1158
    1DIPC   PO4 5330  18.719  19.466   6.896  0.4276  0.1482 -0.2846
    1DIPC   GL1 5331  18.659  19.548   6.546 -0.2526  0.3670 -0.0901
    1DIPC   GL2 5332  18.284  19.671   6.569  0.1515 -0.0395 -0.0163
    1DIPC   C1A 5333  18.754  19.562   6.089  0.0965 -0.1052 -0.3203
    1DIPC   D2A 5334  18.671  19.602   5.732  0.1362  0.0988 -0.2570
    1DIPC   D3A 5335  18.266  19.743   5.542  0.2295  0.1101  0.1295
    1DIPC   C4A 5336  18.499  20.001   5.190  0.1784  0.0632 -0.0051
    1DIPC   C1B 5337  18.065  20.098   6.530  0.1039  0.0759  0.2211
    1DIPC   D2B 5338  17.814  20.451   6.378 -0.1910 -0.2120 -0.0309
    1DIPC   D3B 5339  18.112  20.835   6.137  0.1620  0.0485  0.3744
    1DIPC   C4B 5340  18.253  20.718   5.742 -0.1327 -0.0270  0.2753
    1DIPC   NC3 5341  29.059   3.036   7.220 -0.1585  0.3757  0.1257
    1DIPC   PO4 5342  28.717   3.183   7.099 -0.3733  0.2653 -0.0148
    1DIPC   GL1 5343  28.776   3.146   6.616  0.4442 -0.3652  0.0250
    1DIPC   GL2 5344  29.095   2.920   6.449 -0.3708  0.2424  0.0005
    1DIPC   C1A 5345  28.657   3.155   6.281 -0.2173 -0.0391  0.0662
    1DIPC   D2A 5346  28.884   3.214   5.953 -0.0273 -0.1103  0.1297
    1DIPC   D3A 5347  28.720   3.191   5.590 -0.0366  0.2812 -0.3151
    1DIPC   C4A 5348  28.538   3.439   5.308  0.0723  0.0339 -0.2444
    1DIPC   C1B 5349  29.241   2.913   5.984 -0.2187 -0.3392  0.3008
    1DIPC   D2B 5350  29.281   2.905   5.589 -0.1270 -0.1789  0.2575
    1DIPC   D3B 5351  29.180   3.231   5.279  0.0060  0.1708 -0.0618
    1DIPC   C4B 5352  28.898   3.384   5.003  0.2206 -0.0794  0.0192
    1DIPC   NC3 5353   9.356  27.982   7.134 -0.0347 -0.1688  0.3338
    1DIPC   PO4 5354   8.999  27.831   7.022  0.2228  0.1331  0.0099
    1DIPC   GL1 5355   9.281  27.869   6.654  0.2017  0.1064 -0.1896
    1DIPC   GL2 5356   9.361  27.615   6.493  0.1003  0.0057  0.2214
    1DIPC   C1A 5357   9.398  28.272   6.398 -0.2197  0.1766 -0.1698
    1DIPC   D2A 5358   9.303  28.527   6.010 -0.3445  0.1672  0.0521
    1DIPC   D3A 5359   9.510  28.976   5.761 -0.0607 -0.0485  0.1703
    1DIPC   C4A 5360   9.732  29.014   5.355 -0.4263 -0.0975  0.1770
    1DIPC   C1B 5361   9.143  27.574   6.055 -0.0759 -0.2947  0.1476
    1DIPC   D2B 5362   8.666  27.682   6.018  0.2100  0.1479 -0.2063
    1DIPC   D3B 5363   8.273  27.507   5.654  0.1946  0.5550 -0.0759
    1DIPC   C4B 5364   7.871  27.785   5.748 -0.3015  0.1845 -0.3924
    1DIPC   NC3 5365  16.027  26.760   7.437  0.0688 -0.0636 -0.1587
    1DIPC   PO4 5366  16.427  26.575   7.249 -0.2021 -0.0751  0.3748
    1DIPC   GL1 5367  16.543  26.751   6.823  0.0350  0.1920  0.1021
    1DIPC   GL2 5368  16.348  26.727   6.589  0.1864  0.0217  0.1723
    1DIPC   C1A 5369  16.821  26.829   6.380 -0.3066 -0.2331  0.0963
    1DIPC   D2A 5370  16.893  26.824   6.036 -0.0671 -0.1058  0.1668
    1DIPC   D3A 5371  17.019  26.948   5.568 -0.0602 -0.0010 -0.0435
    1DIPC   C4A 5372  17.305  26.661   5.329 -0.0143 -0.0617 -0.2784
    1DIPC   C1B 5373  16.403  26.945   6.171 -0.1911 -0.3972 -0.3032
    1DIPC   D2B 5374  16.455  26.767   5.725  0.2193  0.1001 -0.1293
    1DIPC   D3B 5375  16.797  26.400   5.702 -0.2623 -0.0074 -0.1426
    1DIPC   C4B 5376  16.671  26.059   5.438 -0.2110  0.0295  0.4872
    1DIPC   NC3 5377   6.556  20.004   6.135 -0.0007  0.2321 -0.3412
    1DIPC   PO4 5378   6.493  20.281   5.839 -0.1296  0.1079 -0.0418
    1DIPC   GL1 5379   6.487  20.114   5.443 -0.1105  0.1346 -0.0697
    1DIPC   GL2 5380   6.848  20.217   5.405 -0.0183 -0.2880 -0.3626
    1DIPC   C1A 5381   6.585  19.895   5.088  0.2619  0.0223  0.0533
    1DIPC   D2A 5382   6.740  19.926   4.672  0.0667  0.3979  0.2500
    1DIPC   D3A 5383   6.508  19.828   4.427 -0.0144  0.0562 -0.2592
    1DIPC   C4A 5384   6.430  20.123   4.212 -0.0646  0.2465  0.1689
    1DIPC   C1B 5385   6.936  20.237   4.958 -0.0434  0.2348 -0.3064
    1DIPC   D2B 5386   7.067  20.226   4.484  0.1046  0.1021  0.1177
    1DIPC   D3B 5387   7.022  20.646   4.447 -0.0648 -0.0497 -0.1412
    1DIPC   C4B 5388   7.048  20.946   4.760 -0.0617 -0.3726 -0.2405
    1DIPC   NC3 5389  21.821  21.173   7.508  0.1801 -0.2316 -0.2809
    1DIPC   PO4 5390  21.322  21.165   7.306  0.0497  0.0457  0.1689
    1DIPC   GL1 5391  21.134  21.346   6.928  0.0211 -0.3175  0.1466
    1DIPC   GL2 5392  21.231  21.735   6.746  0.2129  0.0681  0.3965
    1DIPC   C1A 5393  20.775  21.602   6.584  0.1569  0.0866  0.2040
    1DIPC   D2A 5394  20.432  21.784   6.341  0.0862  0.1485  0.3060
    1DIPC   D3A 5395  20.418  22.097   6.127  0.2670 -0.0616 -0.2047
    1DIPC   C4A 5396  20.148  22.443   6.136  0.3353  0.1423  0.1829
    1DIPC   C1B 5397  21.142  21.915   6.386  0.2849  0.1074  0.0321
    1DIPC   D2B 5398  20.895  21.802   6.110 -0.2402  0.1016 -0.1451
    1DIPC   D3B 5399  20.949  22.248   5.942  0.0180  0.0785  0.0709
    1DIPC   C4B 5400  21.027  22.444   6.384 -0.0271  0.2517 -0.3730
    1DIPC   NC3 5401  11.325   0.358   7.206 -0.0137  0.1843 -0.1450
    1DIPC   PO4 5402  10.970   0.070   7.154 -0.0855 -0.2474  0.0626
    1DIPC   GL1 5403  10.826  -0.189   6.795  0.1708 -0.0390 -0.0991
    1DIPC   GL2 5404  10.662   0.130   6.546  0.2037  0.0165  0.1919
    1DIPC   C1A 5405  10.659  -0.373   6.403 -0.4924 -0.1522 -0.2671
    1DIPC   D2A 5406  10.571  -0.560   5.943 -0.0735 -0.2474  0.3406
    1DIPC   D3A 5407  10.857  -0.311   5.629  0.2834 -0.1647  0.2234
    1DIPC   C4A 5408  11.192  -0.303   5.355 -0.1131 -0.2007 -0.1046
    1DIPC   C1B 5409  10.297  -0.036   6.542  0.1064  0.0658 -0.0809
    1DIPC   D2B 5410  10.298  -0.481   6.659  0.2243 -0.0883 -0.0615
    1DIPC   D3B 5411  10.187  -0.477   6.220 -0.0664  0.0206 -0.1792
    1DIPC   C4B 5412  10.063  -0.783   5.827  0.1187 -0.1435 -0.0917
    1DIPC   NC3 5413  29.668  25.732   6.314  0.0484 -0.1946  0.1580
    1DIPC   PO4 5414  29.434  25.898   5.968 -0.0301 -0.1494  0.0130
    1DIPC   GL1 5415  29.239  25.923   5.558  0.1531 -0.0394  0.6726
    1DIPC   GL2 5416  29.615  26.047   5.419 -0.2504  0.0199  0.4038
    1DIPC   C1A 5417  29.209  25.750   5.263  0.3567  0.0965  0.1563
    1DIPC   D2A 5418  29.166  25.747   4.759  0.2775  0.1033 -0.0063
    1DIPC   D3A 5419  29.425  26.120   4.418  0.1416 -0.0571 -0.0305
    1DIPC   C4A 5420  29.603  25.760   4.253 -0.0643 -0.0061 -0.0273
    1DIPC   C1B 5421  29.745  25.709   5.196  0.0279 -0.1532 -0.1646
    1DIPC   D2B 5422  29.641  25.614   4.814 -0.2071  0.0210  0.2146
    1DIPC   D3B 5423  29.417  25.274   4.646 -0.4057 -0.0951  0.2025
    1DIPC   C4B 5424  29.245  25.408   4.315 -0.2695 -0.0699 -0.1723
    1DIPC   NC3 5425   0.340  23.832   6.515 -0.0089 -0.5510  0.3773
    1DIPC   PO4 5426  -0.049  23.833   6.264 -0.0407 -0.1634  0.3084
    1DIPC   GL1 5427   0.066  23.885   5.693 -0.2292 -0.1199 -0.2167
    1DIPC   GL2 5428   0.054  23.594   5.578  0.0574 -0.1025  0.0549
    1DIPC   C1A 5429  -0.069  24.197   5.461 -0.2048 -0.2235  0.0100
    1DIPC   D2A 5430  -0.096  24.326   5.022 -0.1891  0.1049  0.0171
    1DIPC   D3A 5431  -0.126  24.490   4.575 -0.0722 -0.0001 -0.1005
    1DIPC   C4A 5432  -0.206  24.900   4.428  0.1864  0.1704  0.0545
    1DIPC   C1B 5433   0.008  23.718   5.170  0.1485 -0.0048 -0.1475
    1DIPC   D2B 5434  -0.434  23.740   4.999  0.0169 -0.2907  0.0638
    1DIPC   D3B 5435  -0.308  23.987   4.608 -0.2712  0.0645  0.1129
    1DIPC   C4B 5436   0.087  24.082   4.318  0.0210 -0.2974  0.0940
    1DIPC   NC3 5437   5.139   7.807   6.927  0.0157 -0.0421 -0.0884
    1DIPC   PO4 5438   5.613   7.825   7.083 -0.1119 -0.1444 -0.3144
    1DIPC   GL1 5439   5.643   7.981   6.700 -0.0900  0.0118  0.0615
    1DIPC   GL2 5440   5.467   8.186   6.551 -0.0002 -0.1119 -0.1074
    1DIPC   C1A 5441   5.761   7.800   6.344 -0.1934 -0.1011 -0.1669
    1DIPC   D2A 5442   5.899   7.378   6.199 -0.1462 -0.0886 -0.1269
    1DIPC   D3A 5443   5.546   7.145   6.070 -0.1806 -0.2394 -0.1782
    1DIPC   C4A 5444   5.258   7.283   5.813  0.0128  0.0645 -0.0733
    1DIPC   C1B 5445   5.116   8.090   6.145 -0.2633  0.4250 -0.1015
    1DIPC   D2B 5446   4.797   8.187   5.871 -0.0003  0.0242 -0.3329
    1DIPC   D3B 5447   4.900   8.139   5.444 -0.1675 -0.2096  0.1778
    1DIPC   C4B 5448   4.705   7.757   5.270 -0.2376  0.0681 -0.0945
    1DIPC   NC3 5449   2.600  13.702   6.393 -0.3036 -0.1085 -0.0877
    1DIPC   PO4 5450   2.857  13.440   6.142  0.1817 -0.0854  0.0627
    1DIPC   GL1 5451   2.944  13.501   5.787 -0.1230 -0.0047 -0.2688
    1DIPC   GL2 5452   2.922  13.147   5.605 -0.1622 -0.1883 -0.0201
    1DIPC   C1A 5453   2.756  13.590   5.364 -0.1321  0.1078 -0.0552
    1DIPC   D2A 5454   2.874  13.560   4.897  0.1365 -0.0837 -0.1122
    1DIPC   D3A 5455   2.727  13.975   4.825 -0.2008  0.0500  0.0910
    1DIPC   C4A 5456   2.406  14.177   4.861  0.0972 -0.3829 -0.2613
    1DIPC   C1B 5457   3.070  13.138   5.170  0.0418  0.0152  0.3428
    1DIPC   D2B 5458   3.072  12.941   4.739 -0.1301  0.2690 -0.2017
    1DIPC   D3B 5459   3.006  12.513   4.914 -0.1535 -0.1519  0.1754
    1DIPC   C4B 5460   2.759  12.278   4.669 -0.0162 -0.0314 -0.0322
    1DIPC   NC3 5461   7.021  17.146   6.241  0.1286 -0.0390 -0.5082
    1DIPC   PO4 5462   6.720  17.284   5.879 -0.0371  0.1061  0.3156
    1DIPC   GL1 5463   6.888  17.224   5.545  0.1876  0.0642  0.0912
    1DIPC   GL2 5464   7.076  17.402   5.411 -0.3261  0.1658  0.1054
    1DIPC   C1A 5465   6.639  16.919   5.383 -0.0026  0.1206  0.1473
    1DIPC   D2A 5466   6.359  16.658   5.392 -0.0923 -0.0772 -0.1475
    1DIPC   D3A 5467   6.490  16.691   4.962 -0.2060  0.1079 -0.1078
    1DIPC   C4A 5468   6.817  16.400   4.767  0.0287 -0.2065 -0.0734
    1DIPC   C1B 5469   7.096  17.227   4.967 -0.2108 -0.2480  0.2603
    1DIPC   D2B 5470   6.875  16.984   4.732  0.0972 -0.2170 -0.1959
    1DIPC   D3B 5471   6.820  16.914   4.264 -0.1858 -0.2325 -0.1993
    1DIPC   C4B 5472   6.772  17.263   4.046 -0.0344  0.2737 -0.0168
    1DIPC   NC3 5473  25.167   2.541   6.831  0.1138 -0.0799  0.2140
    1DIPC   PO4 5474  25.608   2.581   6.709 -0.0951  0.0476  0.2033
    1DIPC   GL1 5475  25.450   2.500   6.367 -0.2343 -0.0286  0.2133
    1DIPC   GL2 5476  25.153   2.379   6.257  0.1061  0.3270  0.0502
    1DIPC   C1A 5477  25.490   2.062   6.051 -0.0423 -0.0835  0.2114
    1DIPC   D2A 5478  25.822   1.912   5.909  0.0496 -0.2136  0.1986
    1DIPC   D3A 5479  25.759   1.841   5.499 -0.2904 -0.1937  0.2984
    1DIPC   C4A 5480  25.851   2.209   5.146  0.1898  0.1861 -0.1461
    1DIPC   C1B 5481  24.960   2.224   5.821 -0.2722  0.0883  0.0971
    1DIPC   D2B 5482  24.746   2.029   5.459  0.2424  0.2332 -0.0605
    1DIPC   D3B 5483  24.789   1.579   5.356 -0.1251  0.0275 -0.1326
    1DIPC   C4B 5484  24.508   1.304   5.554 -0.2312 -0.0611  0.0895
    1DIPC   NC3 5485  27.611  12.065   6.339 -0.0467 -0.0855  0.0359
    1DIPC   PO4 5486  27.723  11.842   5.945  0.1502  0.2014 -0.0654
    1DIPC   GL1 5487  27.773  11.716   5.499  0.0561  0.3639  0.1068
    1DIPC   GL2 5488  27.657  12.039   5.432  0.2642  0.2898 -0.0892
    1DIPC   C1A 5489  27.770  11.437   5.171 -0.0237  0.2922  0.0595
    1DIPC   D2A 5490  27.927  11.458   4.854 -0.1813 -0.3881 -0.3552
    1DIPC   D3A 5491  27.632  11.353   4.562 -0.0405  0.5137 -0.0723
    1DIPC   C4A 5492  27.564  11.013   4.862  0.0879 -0.1705  0.0632
    1DIPC   C1B 5493  27.503  11.888   5.022 -0.0166  0.0731 -0.0808
    1DIPC   D2B 5494  27.728  11.887   4.659  0.1704 -0.2723  0.1294
    1DIPC   D3B 5495  27.922  11.714   4.325  0.2382  0.1721  0.1987
    1DIPC   C4B 5496  28.232  11.437   4.323  0.0067  0.0638  0.0485
    1DIPC   NC3 5497  20.304  22.916   6.786 -0.2228  0.3273  0.0630
    1DIPC   PO4 5498  20.756  22.961   6.727  0.1985  0.0887 -0.0654
    1DIPC   GL1 5499  20.956  23.005   6.298  0.1058  0.1643 -0.0261
    1DIPC   GL2 5500  21.054  23.366   6.349 -0.1960 -0.0125 -0.1865
    1DIPC   C1A 5501  20.583  23.149   5.930  0.3063  0.1425  0.1290
    1DIPC   D2A 5502  20.257  22.907   5.694 -0.3011  0.1519  0.0188
    1DIPC   D3A 5503  20.307  23.228   5.467 -0.1669 -0.1786  0.0561
    1DIPC   C4A 5504  20.387  23.655   5.756  0.0702  0.1931  0.0473
    1DIPC   C1B 5505  21.030  23.434   5.933  0.0899 -0.1422 -0.0380
    1DIPC   D2B 5506  20.761  23.365   5.504  0.0499 -0.0456 -0.1495
    1DIPC   D3B 5507  20.975  23.574   5.135  0.1691  0.0759 -0.0300
    1DIPC   C4B 5508  20.915  24.010   5.098  0.0318  0.0058  0.0940
    1DIPC   NC3 5509   6.924  24.259   6.454 -0.1015  0.1300 -0.0285
    1DIPC   PO4 5510   6.469  24.208   6.324  0.0974  0.1358 -0.1380
    1DIPC   GL1 5511   6.415  24.396   5.900 -0.1517  0.1168  0.0890
    1DIPC   GL2 5512   6.175  24.307   5.657  0.1146 -0.1003  0.0130
    1DIPC   C1A 5513   6.374  24.704   5.552 -0.2708  0.1934  0.3474
    1DIPC   D2A 5514   6.470  24.949   5.179 -0.1732 -0.1018 -0.1463
    1DIPC   D3A 5515   6.117  24.720   4.994 -0.0370 -0.1816  0.0657
    1DIPC   C4A 5516   5.821  24.652   5.240  0.1246  0.2745 -0.0443
    1DIPC   C1B 5517   6.721  24.197   5.573  0.1741  0.3399  0.1735
    1DIPC   D2B 5518   6.972  24.006   5.227 -0.2089  0.1162  0.0436
    1DIPC   D3B 5519   7.265  24.297   5.091  0.0719 -0.2421 -0.3334
    1DIPC   C4B 5520   7.180  24.559   4.690  0.3935  0.4322  0.0055
    1DIPC   NC3 5521  20.897   4.093   6.829  0.1941  0.1689 -0.1761
    1DIPC   PO4 5522  20.654   3.693   6.682 -0.0904  0.0709  0.1280
    1DIPC   GL1 5523  20.890   3.759   6.338  0.0746 -0.2245  0.0378
    1DIPC   GL2 5524  20.695   3.618   5.993  0.1184  0.1580 -0.0201
    1DIPC   C1A 5525  21.139   3.797   6.023 -0.0054  0.0718  0.2133
    1DIPC   D2A 5526  21.072   3.798   5.600  0.0763 -0.1898  0.4360
    1DIPC   D3A 5527  21.110   4.020   5.220  0.1407 -0.0208 -0.2156
    1DIPC   C4A 5528  21.274   3.869   4.879 -0.1884 -0.1682 -0.0004
    1DIPC   C1B 5529  20.837   3.323   5.709  0.1883 -0.0634 -0.0881
    1DIPC   D2B 5530  21.049   3.186   5.326 -0.0857 -0.1475 -0.0685
    1DIPC   D3B 5531  21.331   3.535   5.298 -0.0260  0.0615 -0.1833
    1DIPC   C4B 5532  21.627   3.382   5.381  0.4524 -0.0105  0.3183
    1DIPC   NC3 5533  29.231   5.980   6.319 -0.2978 -0.2518  0.1584
    1DIPC   PO4 5534  29.142   6.447   6.393  0.1259  0.1563 -0.1562
    1DIPC   GL1 5535  29.070   6.476   6.005  0.0551 -0.0222 -0.0116
    1DIPC   GL2 5536  28.714   6.677   6.059 -0.1034  0.3245 -0.1558
    1DIPC   C1A 5537  28.960   6.557   5.589 -0.0721  0.1856  0.0838
    1DIPC   D2A 5538  28.799   6.709   5.160 -0.0032 -0.0629 -0.2967
    1DIPC   D3A 5539  29.108   6.547   4.946  0.2194  0.3263 -0.1888
    1DIPC   C4A 5540  29.214   6.133   4.969  0.0167  0.1161 -0.0950
    1DIPC   C1B 5541  28.456   6.678   5.681 -0.1798  0.0278 -0.2412
    1DIPC   D2B 5542  28.045   6.567   5.540 -0.6628 -0.0521 -0.0947
    1DIPC   D3B 5543  28.224   6.457   5.087  0.0105 -0.1537 -0.2352
    1DIPC   C4B 5544  28.554   6.470   4.827 -0.5542  0.1017  0.0620
    1DIPC   NC3 5545  16.207   5.791   6.415  0.0092  0.3862  0.0147
    1DIPC   PO4 5546  16.315   5.388   6.263 -0.2831  0.0325  0.1432
    1DIPC   GL1 5547  16.098   5.413   5.931 -0.0621 -0.0347  0.1110
    1DIPC   GL2 5548  16.177   5.807   5.911  0.1986 -0.0787 -0.0718
    1DIPC   C1A 5549  16.130   5.440   5.468  0.0633  0.0508 -0.0750
    1DIPC   D2A 5550  16.464   5.314   5.222  0.1005 -0.0961 -0.2785
    1DIPC   D3A 5551  16.579   5.334   4.758  0.0038  0.0765  0.2601
    1DIPC   C4A 5552  16.873   5.014   4.561  0.3429  0.2979 -0.0644
    1DIPC   C1B 5553  16.246   6.064   5.557  0.2331  0.0564  0.2376
    1DIPC   D2B 5554  16.280   6.359   5.306  0.1895  0.0296 -0.0028
    1DIPC   D3B 5555  16.573   6.232   5.110  0.0313 -0.2945  0.0940
    1DIPC   C4B 5556  16.757   6.441   4.847  0.1145 -0.2305 -0.2561
    1DIPC   NC3 5557   8.956   1.328   7.421 -0.0759 -0.2252  0.0486
    1DIPC   PO4 5558   8.670   1.424   7.037 -0.3478 -0.1345 -0.1977
    1DIPC   GL1 5559   8.991   1.413   6.777  0.0891 -0.0555  0.4034
    1DIPC   GL2 5560   8.865   1.614   6.517  0.2103  0.0690 -0.0219
    1DIPC   C1A 5561   9.298   1.240   6.590  0.0274 -0.0998  0.3689
    1DIPC   D2A 5562   9.706   1.321   6.272  0.0258 -0.2070 -0.2241
    1DIPC   D3A 5563   9.959   0.881   6.306  0.1479 -0.0577  0.0935
    1DIPC   C4A 5564   9.919   0.726   5.891  0.2762 -0.0108 -0.0419
    1DIPC   C1B 5565   8.754   1.647   6.081 -0.1671 -0.2917 -0.0151
    1DIPC   D2B 5566   8.377   1.884   5.922 -0.3134  0.0778 -0.1393
    1DIPC   D3B 5567   8.664   2.089   5.704 -0.0803 -0.2297  0.0012
    1DIPC   C4B 5568   8.788   2.167   5.290 -0.1029 -0.0430  0.0788
    1DIPC   NC3 5569  21.010  28.581   6.916 -0.1279 -0.2444  0.0352
    1DIPC   PO4 5570  21.278  28.208   7.023  0.1546 -0.1594 -0.2103
    1DIPC   GL1 5571  21.121  28.163   6.642 -0.0815  0.3637  0.0172
    1DIPC   GL2 5572  21.299  28.101   6.284  0.2715 -0.2187 -0.1000
    1DIPC   C1A 5573  20.803  28.234   6.376 -0.0680  0.3634 -0.3062
    1DIPC   D2A 5574  20.790  28.548   5.976  0.4792  0.0427  0.0950
    1DIPC   D3A 5575  21.222  28.640   5.814 -0.1087 -0.0165  0.1927
    1DIPC   C4A 5576  21.606  28.347   6.043 -0.1755  0.1030 -0.0377
    1DIPC   C1B 5577  21.017  28.118   5.914 -0.1887  0.2889  0.0486
    1DIPC   D2B 5578  20.665  28.208   5.629  0.1001 -0.0854  0.3702
    1DIPC   D3B 5579  20.767  28.703   5.494 -0.1519 -0.0153  0.3688
    1DIPC   C4B 5580  20.620  28.807   5.087  0.2552  0.0677 -0.1018
    1DIPC   NC3 5581  27.420  13.241   5.891 -0.1383  0.0652 -0.0010
    1DIPC   PO4 5582  27.818  13.486   5.834 -0.1608 -0.2921 -0.2100
    1DIPC   GL1 5583  27.865  13.646   5.370 -0.2949  0.2010  0.1735
    1DIPC   GL2 5584  28.138  13.880   5.425 -0.0595  0.3049  0.0107
    1DIPC   C1A 5585  27.866  13.900   4.979 -0.0709  0.2760 -0.0212
    1DIPC   D2A 5586  27.975  13.883   4.597  0.0226  0.3325 -0.0612
    1DIPC   D3A 5587  28.016  14.378   4.472  0.5051  0.2492  0.2297
    1DIPC   C4A 5588  28.062  14.552   4.168 -0.0939  0.0189 -0.0101
    1DIPC   C1B 5589  28.288  13.657   4.959  0.0599  0.0574 -0.1179
    1DIPC   D2B 5590  28.556  13.701   4.678  0.1240  0.1040 -0.3717
    1DIPC   D3B 5591  28.479  13.333   4.592  0.2911  0.1679 -0.3275
    1DIPC   C4B 5592  28.466  13.218   4.129  0.2636 -0.1410  0.0040
    1DIPC   NC3 5593  29.581   2.432   6.825 -0.3046 -0.1832 -0.0961
    1DIPC   PO4 5594  29.948   2.412   6.680 -0.0659  0.1539  0.2362
    1DIPC   GL1 5595  30.041   2.648   6.349 -0.2556  0.2743  0.1717
    1DIPC   GL2 5596  30.093   2.502   6.133 -0.0347  0.0509  0.0881
    1DIPC   C1A 5597  30.172   2.943   5.962  0.2047 -0.2208 -0.0073
    1DIPC   D2A 5598  30.150   3.115   5.611  0.1136 -0.5112  0.1534
    1DIPC   D3A 5599  30.549   3.048   5.393  0.1543  0.0326  0.2970
    1DIPC   C4A 5600  30.722   3.085   5.019 -0.0076 -0.0165  0.2871
    1DIPC   C1B 5601  30.069   2.538   5.652 -0.2744 -0.0266 -0.0349
    1DIPC   D2B 5602  29.953   2.724   5.311  0.0977  0.3506  0.0343
    1DIPC   D3B 5603  29.602   2.557   5.402  0.3528 -0.1313 -0.1322
    1DIPC   C4B 5604  29.623   2.581   5.826  0.0562 -0.1049  0.0522
    1DIPC   NC3 5605  27.031  15.088   6.035  0.0193  0.2471  0.3366
    1DIPC   PO4 5606  26.728  15.473   5.849  0.2293  0.0377  0.1616
    1DIPC   GL1 5607  26.592  15.442   5.401 -0.0993 -0.1362  0.1252
    1DIPC   GL2 5608  26.430  15.193   5.232 -0.1529 -0.1855  0.0064
    1DIPC   C1A 5609  26.379  15.703   5.290 -0.0832 -0.1483 -0.1453
    1DIPC   D2A 5610  26.163  15.955   4.996  0.0117 -0.0349  0.0434
    1DIPC   D3A 5611  26.292  15.643   4.600  0.0203  0.0747 -0.0240
    1DIPC   C4A 5612  26.330  15.876   4.237  0.1376 -0.0950  0.0285
    1DIPC   C1B 5613  26.437  15.201   4.873 -0.0786  0.2788 -0.0124
    1DIPC   D2B 5614  26.635  15.174   4.564 -0.2271 -0.2819 -0.1797
    1DIPC   D3B 5615  26.991  14.911   4.426  0.1083  0.1056 -0.1651
    1DIPC   C4B 5616  27.227  15.124   4.107  0.2234  0.1848  0.3006
    1DIPC   NC3 5617  21.815  24.589   6.836  0.1110 -0.1630 -0.0432
    1DIPC   PO4 5618  21.772  24.879   6.983  0.2617 -0.0241 -0.1461
    1DIPC   GL1 5619  21.914  24.973   6.536 -0.1282  0.1068 -0.0274
    1DIPC   GL2 5620  22.170  25.061   6.443  0.2572 -0.1638  0.0381
    1DIPC   C1A 5621  21.741  24.920   6.156  0.0097  0.0141 -0.0298
    1DIPC   D2A 5622  21.446  24.748   5.899  0.2181  0.0776 -0.3186
    1DIPC   D3A 5623  21.291  25.118   5.775 -0.1694 -0.2083  0.1334
    1DIPC   C4A 5624  21.085  25.332   5.998 -0.1652 -0.2565 -0.0035
    1DIPC   C1B 5625  22.217  25.048   6.047 -0.1928 -0.3370 -0.1059
    1DIPC   D2B 5626  22.283  24.769   5.755  0.1668 -0.0010 -0.1295
    1DIPC   D3B 5627  22.191  24.715   5.344 -0.0659  0.0040  0.0744
    1DIPC   C4B 5628  22.089  24.327   5.141 -0.0777 -0.0847  0.2460
    1DIPC   NC3 5629  22.629  12.013   6.052 -0.0025 -0.1881 -0.0503
    1DIPC   PO4 5630  22.370  11.629   6.117  0.3317  0.1242  0.0010
    1DIPC   GL1 5631  22.217  11.727   5.747  0.1807 -0.0029 -0.0439
    1DIPC   GL2 5632  22.169  12.092   5.828 -0.1080 -0.2552  0.1740
    1DIPC   C1A 5633  22.036  11.638   5.347  0.3106  0.3879 -0.0939
    1DIPC   D2A 5634  21.943  11.502   4.946 -0.1561  0.0948  0.1604
    1DIPC   D3A 5635  21.989  11.865   4.706 -0.2127  0.3017 -0.0549
    1DIPC   C4A 5636  21.845  12.035   4.387  0.0686  0.1275 -0.2636
    1DIPC   C1B 5637  21.936  12.121   5.467  0.0669  0.1057 -0.1531
    1DIPC   D2B 5638  21.956  12.217   4.994 -0.3090 -0.1870 -0.2282
    1DIPC   D3B 5639  22.009  12.522   4.751  0.1350  0.1792 -0.1265
    1DIPC   C4B 5640  22.000  12.907   4.757  0.1606 -0.0759 -0.1801
    1DIPC   NC3 5641  16.160  20.980   6.833 -0.3183 -0.0831 -0.1029
    1DIPC   PO4 5642  16.268  21.348   6.992  0.1059 -0.0036  0.0580
    1DIPC   GL1 5643  16.306  21.717   6.751  0.2668 -0.1438  0.2118
    1DIPC   GL2 5644  16.143  21.631   6.529  0.3742  0.0046  0.0282
    1DIPC   C1A 5645  16.675  21.581   6.559 -0.3650 -0.1137 -0.0220
    1DIPC   D2A 5646  16.903  21.228   6.515 -0.0759  0.0304 -0.0533
    1DIPC   D3A 5647  16.971  21.523   6.137 -0.2341  0.1141  0.2074
    1DIPC   C4A 5648  17.124  21.514   5.650  0.1312 -0.0279  0.0661
    1DIPC   C1B 5649  16.419  21.476   6.072  0.0103 -0.0445 -0.2563
    1DIPC   D2B 5650  16.441  21.617   5.656 -0.2099  0.0676 -0.3132
    1DIPC   D3B 5651  16.637  21.616   5.228  0.1033  0.2094  0.1502
    1DIPC   C4B 5652  16.985  21.265   5.206 -0.2167  0.0176  0.0453
    1DIPC   NC3 5653   8.286  26.338   6.677 -0.0328 -0.1066  0.2729
    1DIPC   PO4 5654   8.357  26.756   6.558 -0.2394  0.0331 -0.0047
    1DIPC   GL1 5655   8.611  26.854   6.149  0.2029  0.0401 -0.4257
    1DIPC   GL2 5656   8.859  27.127   6.117  0.2020  0.3432  0.0585
    1DIPC   C1A 5657   8.903  26.793   5.728  0.0898 -0.1802  0.1580
    1DIPC   D2A 5658   8.941  26.966   5.334  0.1666 -0.0722  0.1276
    1DIPC   D3A 5659   8.970  26.904   4.981  0.2358 -0.0003 -0.1676
    1DIPC   C4A 5660   8.628  27.024   4.731 -0.0194 -0.2586  0.0334
    1DIPC   C1B 5661   8.703  27.273   5.750  0.1504  0.4403 -0.2612
    1DIPC   D2B 5662   8.886  27.494   5.353 -0.1441  0.0988  0.0589
    1DIPC   D3B 5663   8.789  27.869   5.536  0.0895  0.1450 -0.0957
    1DIPC   C4B 5664   8.907  28.282   5.384  0.2280  0.2239  0.1440
    1DIPC   NC3 5665  24.531  11.465   6.155  0.0863  0.1944  0.2275
    1DIPC   PO4 5666  25.004  11.572   6.133 -0.1886  0.0430  0.0146
    1DIPC   GL1 5667  25.110  11.624   5.617  0.0744 -0.0229 -0.1829
    1DIPC   GL2 5668  24.981  11.959   5.492  0.1971 -0.0127 -0.1477
    1DIPC   C1A 5669  25.034  11.387   5.263  0.1778 -0.0367  0.0107
    1DIPC   D2A 5670  24.723  11.082   5.058  0.0347  0.0421  0.2564
    1DIPC   D3A 5671  25.026  11.226   4.843  0.0276 -0.1698  0.1265
    1DIPC   C4A 5672  25.424  11.187   4.916 -0.1354  0.0372 -0.0283
    1DIPC   C1B 5673  24.893  11.850   5.161  0.0166 -0.1282 -0.2226
    1DIPC   D2B 5674  24.753  11.639   4.849 -0.1856  0.3148  0.2028
    1DIPC   D3B 5675  24.545  11.953   4.706 -0.0903 -0.1896 -0.0463
    1DIPC   C4B 5676  24.721  12.398   4.851 -0.1582  0.0498  0.3089
    1DIPC   NC3 5677  23.193   6.486   6.350  0.1218  0.1785  0.1456
    1DIPC   PO4 5678  23.523   6.819   6.401 -0.1895  0.0583 -0.1883
    1DIPC   GL1 5679  23.598   6.653   5.975  0.0008  0.0261 -0.0087
    1DIPC   GL2 5680  23.752   6.449   5.841 -0.0718  0.0583 -0.0071
    1DIPC   C1A 5681  23.631   6.879   5.632  0.2205  0.3542  0.1226
    1DIPC   D2A 5682  23.934   7.030   5.271  0.0498 -0.0269  0.0415
    1DIPC   D3A 5683  24.128   7.531   5.121 -0.1275 -0.4319  0.1000
    1DIPC   C4A 5684  24.466   7.383   4.823 -0.2007  0.2927  0.0052
    1DIPC   C1B 5685  23.324   6.489   5.557  0.1895  0.0992 -0.1021
    1DIPC   D2B 5686  23.130   6.808   5.303 -0.0709  0.0486  0.0729
    1DIPC   D3B 5687  23.509   6.637   5.065  0.0424 -0.2265  0.0601
    1DIPC   C4B 5688  23.911   6.735   4.882 -0.0687  0.0607 -0.0947
    1DIPC   NC3 5689  24.640  24.435   7.469  0.3041 -0.1579 -0.1475
    1DIPC   PO4 5690  24.568  24.538   6.997 -0.2043 -0.1041 -0.3070
    1DIPC   GL1 5691  24.608  24.470   6.554 -0.3371  0.0081 -0.0807
    1DIPC   GL2 5692  24.784  24.701   6.325  0.2352 -0.0580  0.2999
    1DIPC   C1A 5693  24.437  24.186   6.263  0.1672  0.1313  0.0657
    1DIPC   D2A 5694  24.344  24.278   5.916 -0.2103  0.2120 -0.0512
    1DIPC   D3A 5695  24.683  23.958   5.863  0.0203 -0.2380  0.1432
    1DIPC   C4A 5696  24.730  23.629   5.537  0.0490  0.0260 -0.0386
    1DIPC   C1B 5697  24.545  24.695   6.026 -0.0768 -0.0735  0.5875
    1DIPC   D2B 5698  24.416  24.697   5.564 -0.2647  0.2268  0.1506
    1DIPC   D3B 5699  24.466  24.650   5.069 -0.0184 -0.2077 -0.0338
    1DIPC   C4B 5700  24.732  24.443   4.841  0.1630  0.0567  0.0441
    1DIPC   NC3 5701   7.315   4.053   7.195  0.0999  0.0845 -0.0559
    1DIPC   PO4 5702   7.806   4.209   7.055  0.1847 -0.2746 -0.1769
    1DIPC   GL1 5703   7.856   4.180   6.605  0.0912 -0.0766 -0.5269
    1DIPC   GL2 5704   8.084   4.231   6.560  0.2236  0.0434  0.1348
    1DIPC   C1A 5705   7.832   4.289   6.148  0.1525  0.0169  0.0633
    1DIPC   D2A 5706   7.827   4.003   5.803 -0.0401  0.2137  0.4783
    1DIPC   D3A 5707   7.708   4.381   5.607  0.4484  0.0086  0.0520
    1DIPC   C4A 5708   7.303   4.503   5.590 -0.1248 -0.0989 -0.1760
    1DIPC   C1B 5709   8.265   3.899   6.228  0.0491 -0.0697 -0.1761
    1DIPC   D2B 5710   8.093   3.498   6.139  0.1102 -0.0377  0.1129
    1DIPC   D3B 5711   7.711   3.289   6.160 -0.0235 -0.0526  0.2123
    1DIPC   C4B 5712   7.472   3.587   5.866 -0.1425 -0.0244  0.2361
    1DIPC   NC3 5713  24.346  26.779   6.659  0.0103 -0.0279 -0.0340
    1DIPC   PO4 5714  24.540  27.107   6.499  0.0672  0.0248  0.1813
    1DIPC   GL1 5715  24.271  27.083   6.130  0.1294 -0.2434  0.1703
    1DIPC   GL2 5716  24.027  26.890   6.209  0.2361  0.1802 -0.0183
    1DIPC   C1A 5717  24.226  26.933   5.706  0.1469 -0.2074 -0.5634
    1DIPC   D2A 5718  24.251  26.805   5.294 -0.0135  0.0005 -0.0335
    1DIPC   D3A 5719  24.319  27.225   4.963 -0.5931 -0.3454 -0.1131
    1DIPC   C4A 5720  23.996  27.352   4.675  0.1401 -0.0831  0.2213
    1DIPC   C1B 5721  23.845  26.698   5.794 -0.3620 -0.0560  0.1133
    1DIPC   D2B 5722  23.974  26.406   5.558  0.0619 -0.1932 -0.1035
    1DIPC   D3B 5723  23.831  26.294   5.159  0.0500 -0.1944  0.1565
    1DIPC   C4B 5724  23.969  26.204   4.686 -0.0354 -0.1641  0.1657
    1DIPC   NC3 5725  21.913   6.150   6.329 -0.1115  0.2832 -0.2403
    1DIPC   PO4 5726  21.459   6.329   6.273  0.2518 -0.0110 -0.0243
    1DIPC   GL1 5727  21.123   6.375   6.058  0.2467  0.0590  0.3237
    1DIPC   GL2 5728  21.214   6.569   5.796 -0.0232  0.0720  0.0067
    1DIPC   C1A 5729  20.774   6.287   5.738  0.2869  0.2619 -0.2956
    1DIPC   D2A 5730  20.381   6.478   5.779 -0.1296  0.3213  0.1370
    1DIPC   D3A 5731  20.269   6.138   5.408 -0.1689 -0.1276 -0.0099
    1DIPC   C4A 5732  20.098   6.313   4.942 -0.3045 -0.2356 -0.0961
    1DIPC   C1B 5733  20.927   6.570   5.346 -0.0359  0.5161  0.0599
    1DIPC   D2B 5734  20.594   6.410   5.049  0.0439 -0.0208  0.1531
    1DIPC   D3B 5735  20.884   6.565   4.708 -0.1558 -0.2448  0.0497
    1DIPC   C4B 5736  21.326   6.451   4.855 -0.1463  0.1344  0.1762
    1DIPC   NC3 5737  21.136  29.460   7.402  0.0209  0.1419 -0.3218
    1DIPC   PO4 5738  21.481  29.209   7.025 -0.1048  0.2094 -0.1338
    1DIPC   GL1 5739  21.727  29.187   6.653  0.2562 -0.2132  0.0480
    1DIPC   GL2 5740  21.635  29.534   6.612  0.0564 -0.0577 -0.0406
    1DIPC   C1A 5741  21.616  29.300   6.219 -0.1323  0.0189 -0.4183
    1DIPC   D2A 5742  21.500  29.200   5.849  0.4632 -0.1906  0.1087
    1DIPC   D3A 5743  21.271  29.587   5.943 -0.0120 -0.5607  0.0550
    1DIPC   C4A 5744  20.867  29.591   6.140  0.2652 -0.0750 -0.0108
    1DIPC   C1B 5745  21.661  29.827   6.268 -0.3525 -0.2048 -0.1251
    1DIPC   D2B 5746  21.629  29.949   5.843  0.0791 -0.3843  0.0623
    1DIPC   D3B 5747  21.620  29.616   5.541  0.1026  0.1706 -0.0014
    1DIPC   C4B 5748  21.196  29.602   5.404  0.0072 -0.1975 -0.0032
    1DIPC   NC3 5749   5.582  10.309   6.423 -0.0685 -0.2870 -0.0558
    1DIPC   PO4 5750   5.177  10.432   6.501 -0.2895 -0.0553  0.1367
    1DIPC   GL1 5751   5.155  10.305   6.088 -0.2333 -0.0252 -0.1206
    1DIPC   GL2 5752   4.965  10.574   6.051 -0.0538 -0.1063  0.0637
    1DIPC   C1A 5753   5.024  10.283   5.680  0.2360  0.1214  0.5715
    1DIPC   D2A 5754   4.961  10.176   5.191  0.1290 -0.1189 -0.0136
    1DIPC   D3A 5755   4.732  10.587   5.172 -0.0509 -0.0944  0.2652
    1DIPC   C4A 5756   4.246  10.540   5.026  0.0585 -0.2899  0.0328
    1DIPC   C1B 5757   5.317  10.754   5.824 -0.0358 -0.3411 -0.0283
    1DIPC   D2B 5758   5.551  10.396   5.714  0.0090  0.1676 -0.1402
    1DIPC   D3B 5759   5.737  10.055   5.984 -0.0229 -0.1617  0.2578
    1DIPC   C4B 5760   5.904   9.842   5.577  0.3939 -0.1340  0.2233
    1DIPC   NC3 5761   5.902  18.821   5.632  0.0575  0.2158  0.2585
    1DIPC   PO4 5762   5.564  18.520   5.615  0.2650  0.2366  0.0229
    1DIPC   GL1 5763   5.776  18.422   5.292  0.2268  0.1110  0.2078
    1DIPC   GL2 5764   6.037  18.198   5.343 -0.2605 -0.6230 -0.1114
    1DIPC   C1A 5765   5.764  18.321   4.831 -0.0839  0.1566 -0.0684
    1DIPC   D2A 5766   5.670  18.475   4.390  0.1168 -0.0765  0.1365
    1DIPC   D3A 5767   5.977  18.748   4.405 -0.5913  0.2137 -0.3214
    1DIPC   C4A 5768   5.879  19.235   4.463  0.0609  0.2480  0.0355
    1DIPC   C1B 5769   6.220  18.088   4.921 -0.0130  0.3898 -0.0730
    1DIPC   D2B 5770   6.472  17.828   4.743 -0.2028  0.2507  0.0552
    1DIPC   D3B 5771   6.268  17.645   4.555  0.1896 -0.0217  0.1911
    1DIPC   C4B 5772   5.873  17.835   4.646  0.0937 -0.2160 -0.0695
    1DIPC   NC3 5773  24.833  21.030   7.441 -0.1689 -0.1438 -0.2480
    1DIPC   PO4 5774  25.026  21.123   7.035  0.0236 -0.1563  0.3274
    1DIPC   GL1 5775  25.133  20.998   6.597  0.0239  0.0367 -0.0855
    1DIPC   GL2 5776  25.469  20.995   6.493 -0.0982  0.1834 -0.2283
    1DIPC   C1A 5777  25.150  20.874   6.152 -0.2624 -0.1639  0.1752
    1DIPC   D2A 5778  25.426  21.142   5.775  0.4448  0.0682 -0.1022
    1DIPC   D3A 5779  25.357  20.721   5.697  0.1401  0.1893 -0.3873
    1DIPC   C4A 5780  24.933  20.708   5.622 -0.2032 -0.0744  0.3161
    1DIPC   C1B 5781  25.727  20.940   6.170  0.1151 -0.2064 -0.1820
    1DIPC   D2B 5782  25.987  20.688   6.137 -0.0232 -0.0989  0.2188
    1DIPC   D3B 5783  26.369  20.880   5.913 -0.3084 -0.2439  0.2654
    1DIPC   C4B 5784  26.321  21.240   5.579 -0.3788 -0.0857  0.0241
    1DIPC   NC3 5785   9.220  26.202   6.544 -0.0814  0.4143 -0.1451
    1DIPC   PO4 5786   9.376  26.320   6.120 -0.3626  0.1725  0.0102
    1DIPC   GL1 5787   9.397  26.733   5.915  0.1438  0.2744  0.1243
    1DIPC   GL2 5788   9.630  26.724   5.931 -0.2751 -0.2303  0.3096
    1DIPC   C1A 5789   9.452  26.846   5.383  0.0074 -0.1438 -0.2690
    1DIPC   D2A 5790   9.525  27.135   4.979 -0.1286 -0.1195 -0.0251
    1DIPC   D3A 5791   9.020  27.371   4.815 -0.1341 -0.0867 -0.2964
    1DIPC   C4A 5792   8.993  27.795   4.727  0.0339 -0.0954  0.0868
    1DIPC   C1B 5793   9.767  27.069   5.771 -0.2058 -0.1306  0.1017
    1DIPC   D2B 5794   9.692  27.511   5.760  0.2754  0.4303  0.0806
    1DIPC   D3B 5795   9.221  27.752   5.641 -0.0830 -0.0429 -0.2646
    1DIPC   C4B 5796   9.164  27.893   5.181 -0.2214  0.1356 -0.1898
    1DIPC   NC3 5797   5.771  24.987   6.124 -0.0339 -0.2705 -0.0211
    1DIPC   PO4 5798   6.076  25.265   6.247  0.0323  0.1106 -0.1497
    1DIPC   GL1 5799   5.927  25.353   5.773 -0.1142 -0.1954  0.1159
    1DIPC   GL2 5800   5.985  24.981   5.683 -0.0016 -0.3175 -0.2929
    1DIPC   C1A 5801   5.714  25.519   5.386  0.0597 -0.0928 -0.1379
    1DIPC   D2A 5802   5.312  25.599   5.228 -0.0127 -0.1896  0.0154
    1DIPC   D3A 5803   5.645  25.653   4.840  0.1979 -0.3219 -0.0295
    1DIPC   C4A 5804   5.836  25.743   4.465 -0.1014  0.0142 -0.3729
    1DIPC   C1B 5805   6.029  25.139   5.319  0.1475  0.0063  0.0422
    1DIPC   D2B 5806   6.021  25.240   4.896  0.1694  0.0093  0.1792
    1DIPC   D3B 5807   6.074  25.666   5.148  0.0707  0.2723 -0.2331
    1DIPC   C4B 5808   6.299  25.681   5.542 -0.1720 -0.1217 -0.0943
    1DIPC   NC3 5809  26.292  24.891   6.249  0.3352  0.1250  0.0190
    1DIPC   PO4 5810  26.651  24.961   6.556  0.1859  0.2113 -0.1965
    1DIPC   GL1 5811  26.835  24.868   6.137  0.1184 -0.0317 -0.0004
    1DIPC   GL2 5812  26.669  25.081   5.938 -0.0685 -0.1510  0.2649
    1DIPC   C1A 5813  27.235  24.809   5.940  0.4023 -0.0137 -0.0888
    1DIPC   D2A 5814  27.430  24.498   5.732  0.2410  0.1355  0.2088
    1DIPC   D3A 5815  27.058  24.510   5.497 -0.1547  0.0434 -0.0052
    1DIPC   C4A 5816  26.809  24.847   5.401  0.1501  0.2376  0.1814
    1DIPC   C1B 5817  27.068  25.182   5.668  0.0722 -0.1921 -0.0826
    1DIPC   D2B 5818  27.328  24.898   5.429 -0.0468 -0.1899  0.2908
    1DIPC   D3B 5819  27.342  25.121   5.121  0.2949  0.0908  0.0637
    1DIPC   C4B 5820  27.615  24.973   4.852 -0.0111 -0.0029 -0.0231
    1DIPC   NC3 5821  18.888  29.034   6.833  0.1309  0.2071  0.0448
    1DIPC   PO4 5822  19.238  28.729   6.797 -0.1393 -0.0728 -0.2348
    1DIPC   GL1 5823  19.235  28.709   6.427 -0.0589 -0.2122  0.0241
    1DIPC   GL2 5824  19.365  28.470   6.286  0.0662  0.0386  0.1555
    1DIPC   C1A 5825  19.161  28.845   6.051 -0.0166 -0.0241  0.1571
    1DIPC   D2A 5826  19.431  28.630   5.769  0.0635 -0.1141 -0.0550
    1DIPC   D3A 5827  19.674  28.537   5.375  0.2556  0.0140  0.0808
    1DIPC   C4A 5828  19.690  28.041   5.403 -0.0902 -0.1316  0.1723
    1DIPC   C1B 5829  19.266  28.056   6.245  0.0690  0.2002  0.1930
    1DIPC   D2B 5830  19.265  27.730   5.938 -0.0056  0.1002  0.0782
    1DIPC   D3B 5831  19.543  28.151   5.836 -0.1875  0.3007  0.0146
    1DIPC   C4B 5832  19.952  28.107   5.874  0.1007  0.1867  0.0698
    1DIPC   NC3 5833  25.049  18.819   6.908 -0.0200 -0.0157  0.0118
    1DIPC   PO4 5834  25.363  19.148   6.829  0.0421  0.3316  0.2356
    1DIPC   GL1 5835  25.086  19.221   6.535 -0.2878 -0.1021  0.1748
    1DIPC   GL2 5836  25.042  19.535   6.313  0.2267  0.2080  0.0259
    1DIPC   C1A 5837  24.653  19.298   6.385  0.1016  0.0247  0.3538
    1DIPC   D2A 5838  24.436  19.493   6.016  0.4620 -0.0158 -0.2595
    1DIPC   D3A 5839  24.345  19.522   5.571  0.1429 -0.1248  0.4891
    1DIPC   C4A 5840  24.128  19.631   5.279 -0.1027 -0.1459  0.4940
    1DIPC   C1B 5841  25.051  19.226   6.002 -0.0540  0.0492 -0.0275
    1DIPC   D2B 5842  24.780  19.305   5.602  0.0031 -0.0641  0.1138
    1DIPC   D3B 5843  24.623  19.418   5.129 -0.0620 -0.1838 -0.3452
    1DIPC   C4B 5844  25.006  19.577   4.853  0.0257 -0.3446  0.0277
    1DIPC   NC3 5845   8.132  29.324   6.905  0.0855 -0.3038 -0.0925
    1DIPC   PO4 5846   8.344  29.732   6.845  0.3541 -0.0778  0.0095
    1DIPC   GL1 5847   8.442  29.471   6.480 -0.1688  0.0182 -0.1707
    1DIPC   GL2 5848   8.348  29.243   6.463  0.0669 -0.0121  0.0222
    1DIPC   C1A 5849   8.707  29.328   6.084 -0.0517  0.0029 -0.0491
    1DIPC   D2A 5850   8.646  29.466   5.735 -0.0766  0.2878 -0.0334
    1DIPC   D3A 5851   9.083  29.428   5.619 -0.1333 -0.0063  0.3951
    1DIPC   C4A 5852   9.381  29.490   5.277  0.0352  0.2103 -0.2200
    1DIPC   C1B 5853   8.208  29.256   5.952 -0.2237 -0.1250  0.2763
    1DIPC   D2B 5854   8.141  29.355   5.556 -0.1266 -0.1462 -0.1008
    1DIPC   D3B 5855   8.395  29.695   5.299  0.0992  0.0805 -0.0657
    1DIPC   C4B 5856   8.269  30.183   5.209 -0.3273  0.1144 -0.0757
    1DIPC   NC3 5857   6.539   1.396   7.115  0.4232  0.1407 -0.1446
    1DIPC   PO4 5858   6.640   1.501   6.630 -0.0277 -0.1255  0.0535
    1DIPC   GL1 5859   6.743   1.511   6.221 -0.0855  0.0513  0.0680
    1DIPC   GL2 5860   7.089   1.597   6.144 -0.1000 -0.1450 -0.2515
    1DIPC   C1A 5861   6.493   1.700   5.917 -0.1673 -0.0486 -0.1202
    1DIPC   D2A 5862   6.329   1.849   5.563 -0.1220  0.1147 -0.0193
    1DIPC   D3A 5863   6.666   2.224   5.374 -0.2441  0.0883 -0.1764
    1DIPC   C4A 5864   7.060   2.096   5.103 -0.1760  0.1518 -0.1294
    1DIPC   C1B 5865   7.304   1.501   5.771  0.0141 -0.0130  0.3997
    1DIPC   D2B 5866   7.461   1.270   5.470  0.1041 -0.0905  0.0274
    1DIPC   D3B 5867   7.062   1.357   5.332  0.3850  0.0006 -0.2765
    1DIPC   C4B 5868   6.867   1.680   5.486 -0.1959  0.3771 -0.1078
    1DIPC   NC3 5869   0.034  13.701   5.903 -0.2768  0.2196  0.3200
    1DIPC   PO4 5870  -0.423  13.814   5.772 -0.0640 -0.0141 -0.3662
    1DIPC   GL1 5871  -0.264  13.673   5.403 -0.0531  0.0242  0.0732
    1DIPC   GL2 5872   0.031  13.794   5.418  0.2676 -0.1159 -0.1432
    1DIPC   C1A 5873  -0.358  13.625   5.016 -0.1632  0.1560  0.1377
    1DIPC   D2A 5874  -0.226  14.036   4.771 -0.3356 -0.1227  0.3451
    1DIPC   D3A 5875  -0.423  14.131   4.315  0.1649  0.2091  0.3308
    1DIPC   C4A 5876  -0.898  13.958   4.311 -0.1047  0.0334 -0.0383
    1DIPC   C1B 5877   0.142  13.724   4.998  0.3056 -0.0000 -0.1159
    1DIPC   D2B 5878   0.090  13.656   4.614 -0.0455 -0.3164  0.0653
    1DIPC   D3B 5879   0.428  13.813   4.336  0.0008  0.3505 -0.3114
    1DIPC   C4B 5880   0.596  13.565   3.973 -0.2664 -0.1577 -0.2845
    1DIPC   NC3 5881  23.436  21.693   6.797 -0.1203 -0.1597  0.0578
    1DIPC   PO4 5882  23.170  21.258   6.631 -0.1138 -0.1942  0.0309
    1DIPC   GL1 5883  23.323  20.874   6.346 -0.1428  0.2841  0.1570
    1DIPC   GL2 5884  23.543  20.951   6.094  0.1473  0.0637  0.2435
    1DIPC   C1A 5885  23.195  20.562   6.070 -0.0126 -0.1598  0.0186
    1DIPC   D2A 5886  23.035  20.436   5.674  0.0031  0.0000 -0.2392
    1DIPC   D3A 5887  23.046  20.179   5.431 -0.1646 -0.0734 -0.1102
    1DIPC   C4A 5888  22.925  20.236   5.042 -0.0264  0.1537 -0.1091
    1DIPC   C1B 5889  23.191  20.929   5.690  0.2271 -0.0103  0.3126
    1DIPC   D2B 5890  23.193  20.678   5.269  0.2616  0.5621 -0.3496
    1DIPC   D3B 5891  22.764  20.839   5.421 -0.3689  0.1989 -0.0838
    1DIPC   C4B 5892  22.378  20.683   5.141  0.0605  0.1623 -0.1449
    1DIPC   NC3 5893   1.452  21.824   5.786 -0.2476  0.0990 -0.3853
    1DIPC   PO4 5894   1.664  22.220   5.684 -0.3662 -0.0875  0.0359
    1DIPC   GL1 5895   1.291  22.105   5.396 -0.0093  0.0746 -0.1036
    1DIPC   GL2 5896   1.290  22.419   5.228 -0.1074  0.2466 -0.2828
    1DIPC   C1A 5897   1.280  21.806   4.917  0.5335  0.2924  0.0110
    1DIPC   D2A 5898   1.591  21.485   4.845  0.1057 -0.1423 -0.1233
    1DIPC   D3A 5899   1.693  21.669   4.526 -0.0023  0.3131 -0.0120
    1DIPC   C4A 5900   1.925  21.527   4.205 -0.3745 -0.1210  0.0184
    1DIPC   C1B 5901   1.542  22.373   4.832 -0.1859 -0.4563 -0.0120
    1DIPC   D2B 5902   1.451  22.201   4.483  0.0357  0.1119  0.0622
    1DIPC   D3B 5903   1.320  21.935   4.376  0.1944 -0.0276 -0.0252
    1DIPC   C4B 5904   1.013  22.209   4.090  0.0096  0.0107 -0.1889
    1DIPC   NC3 5905   0.962   8.769   6.409 -0.0847 -0.3030  0.0715
    1DIPC   PO4 5906   1.025   8.402   6.311  0.2085 -0.1365  0.1665
    1DIPC   GL1 5907   0.983   8.273   5.884 -0.1254  0.3692  0.1861
    1DIPC   GL2 5908   0.606   8.179   5.638  0.0459  0.0539 -0.0409
    1DIPC   C1A 5909   1.168   8.277   5.527  0.0761  0.1696 -0.0546
    1DIPC   D2A 5910   1.211   8.209   5.080 -0.2969  0.2807  0.0297
    1DIPC   D3A 5911   1.401   8.455   4.712 -0.1952 -0.3041  0.5054
    1DIPC   C4A 5912   1.417   8.347   4.304 -0.0213  0.2426  0.0102
    1DIPC   C1B 5913   0.865   7.928   5.374  0.0090  0.0094 -0.3328
    1DIPC   D2B 5914   1.222   7.723   5.145 -0.0102  0.1773  0.2508
    1DIPC   D3B 5915   1.091   7.912   4.699  0.0570  0.0024  0.0107
    1DIPC   C4B 5916   0.950   8.341   4.538 -0.0226 -0.2855 -0.2295
    1DIPC   NC3 5917   1.554  11.642   5.967 -0.1729 -0.3146  0.1175
    1DIPC   PO4 5918   1.928  11.807   6.113  0.3216 -0.1842 -0.0236
    1DIPC   GL1 5919   2.007  11.732   5.701  0.0720 -0.0755 -0.0996
    1DIPC   GL2 5920   1.695  11.609   5.499 -0.0643  0.1339  0.1090
    1DIPC   C1A 5921   2.142  11.374   5.329  0.1448  0.1133  0.0678
    1DIPC   D2A 5922   2.262  11.075   5.043 -0.4891 -0.0504  0.1060
    1DIPC   D3A 5923   2.125  11.019   4.671  0.0856  0.0022  0.2302
    1DIPC   C4A 5924   1.722  11.040   4.465  0.2534  0.0886  0.0913
    1DIPC   C1B 5925   1.533  11.875   5.141  0.0999  0.4214 -0.1434
    1DIPC   D2B 5926   1.244  11.778   4.776 -0.1199 -0.0012 -0.2985
    1DIPC   D3B 5927   0.932  12.142   4.591 -0.2280 -0.1730  0.5585
    1DIPC   C4B 5928   0.793  12.108   4.250 -0.0443  0.0924 -0.0509
    1DIPC   NC3 5929   0.751  27.790   7.016  0.0730  0.2232  0.2154
    1DIPC   PO4 5930   0.752  28.023   6.652  0.0698 -0.3608 -0.0449
    1DIPC   GL1 5931   0.627  27.884   6.216 -0.0961  0.0605  0.0250
    1DIPC   GL2 5932   0.309  27.841   6.104  0.2414 -0.1082  0.1141
    1DIPC   C1A 5933   0.667  28.111   5.826 -0.2220 -0.1499  0.2260
    1DIPC   D2A 5934   0.383  28.117   5.620 -0.0808 -0.1754  0.0132
    1DIPC   D3A 5935  -0.080  28.224   5.585 -0.1324  0.1004 -0.0338
    1DIPC   C4A 5936  -0.040  28.681   5.684 -0.1923  0.1557 -0.1239
    1DIPC   C1B 5937   0.061  27.765   5.723 -0.1393 -0.0475  0.1459
    1DIPC   D2B 5938  -0.136  27.845   5.295  0.0717  0.0685 -0.2489
    1DIPC   D3B 5939  -0.152  27.734   4.912 -0.0928 -0.1769  0.2310
    1DIPC   C4B 5940  -0.547  27.769   4.783  0.2778  0.0993 -0.1644
    1DIPC   NC3 5941   6.146  12.389   6.187  0.0036 -0.0122 -0.2408
    1DIPC   PO4 5942   6.335  11.900   6.318  0.1314  0.0216 -0.0120
    1DIPC   GL1 5943   6.564  11.921   5.970  0.3720  0.1793 -0.0488
    1DIPC   GL2 5944   6.412  11.733   5.675  0.0377  0.1838  0.0318
    1DIPC   C1A 5945   6.742  12.371   5.821 -0.0424  0.0769 -0.1290
    1DIPC   D2A 5946   7.110  12.655   5.896 -0.3057  0.0530 -0.1053
    1DIPC   D3A 5947   7.388  12.390   6.238  0.0039 -0.0673  0.0561
    1DIPC   C4A 5948   7.676  12.127   6.042  0.1412  0.1104  0.1349
    1DIPC   C1B 5949   6.088  11.637   5.566 -0.1337  0.0215 -0.1200
    1DIPC   D2B 5950   5.653  11.601   5.669  0.0628 -0.1888 -0.0181
    1DIPC   D3B 5951   5.600  11.694   5.177  0.2865 -0.0045 -0.0210
    1DIPC   C4B 5952   5.316  11.749   4.749  0.1608 -0.0922  0.1256
    1DIPC   NC3 5953   4.125  14.708   6.335 -0.0266  0.2806  0.1272
    1DIPC   PO4 5954   3.906  14.837   5.901  0.1396  0.0226 -0.4359
    1DIPC   GL1 5955   4.037  15.048   5.421 -0.1198 -0.3582 -0.1392
    1DIPC   GL2 5956   3.728  15.216   5.425 -0.0133 -0.2311  0.0418
    1DIPC   C1A 5957   4.305  15.041   5.127 -0.1235  0.0033 -0.1523
    1DIPC   D2A 5958   4.336  14.910   4.738  0.1166 -0.1703 -0.2998
    1DIPC   D3A 5959   4.142  15.114   4.382 -0.0039 -0.1538  0.2484
    1DIPC   C4A 5960   3.658  15.242   4.504 -0.1371  0.3339 -0.2806
    1DIPC   C1B 5961   3.542  15.140   5.044  0.0484 -0.4191  0.1969
    1DIPC   D2B 5962   3.755  14.843   4.823 -0.2877 -0.2154  0.3180
    1DIPC   D3B 5963   3.664  14.723   5.250 -0.1799 -0.0546 -0.0808
    1DIPC   C4B 5964   3.354  14.423   5.305  0.0114 -0.1077  0.1574
    1DIPC   NC3 5965  23.316  22.801   6.713  0.2192  0.0051 -0.2065
    1DIPC   PO4 5966  23.098  23.012   6.445 -0.0544 -0.2006  0.3534
    1DIPC   GL1 5967  23.066  23.150   6.048  0.0171 -0.0672  0.0545
    1DIPC   GL2 5968  23.385  23.096   5.865 -0.1605 -0.0059 -0.0094
    1DIPC   C1A 5969  22.914  23.171   5.570 -0.2013 -0.1051 -0.1259
    1DIPC   D2A 5970  22.856  22.983   5.242 -0.0401  0.0758  0.2566
    1DIPC   D3A 5971  22.718  23.135   4.883  0.0489  0.0361  0.1730
    1DIPC   C4A 5972  22.343  23.497   4.772 -0.1883  0.1449 -0.3873
    1DIPC   C1B 5973  23.253  22.682   5.711 -0.0743 -0.5487  0.0288
    1DIPC   D2B 5974  23.108  22.232   5.506 -0.2656 -0.0526 -0.4552
    1DIPC   D3B 5975  23.162  22.582   5.215 -0.0954  0.1055 -0.2341
    1DIPC   C4B 5976  23.441  22.948   5.320  0.1775  0.1289 -0.0443
    1DIPC   NC3 5977  17.902  28.073   6.667  0.0652  0.0418 -0.2661
    1DIPC   PO4 5978  17.940  28.599   6.729 -0.1140  0.2913 -0.2617
    1DIPC   GL1 5979  17.886  28.761   6.358  0.1510  0.5106 -0.2209
    1DIPC   GL2 5980  17.868  29.150   6.379  0.0269  0.0502  0.1432
    1DIPC   C1A 5981  17.745  28.635   5.995 -0.2152 -0.0263 -0.2014
    1DIPC   D2A 5982  17.791  28.577   5.478 -0.0216 -0.2492 -0.1446
    1DIPC   D3A 5983  17.814  28.904   5.465 -0.0327 -0.1392 -0.0892
    1DIPC   C4A 5984  18.153  29.053   5.286  0.0551 -0.0515 -0.0302
    1DIPC   C1B 5985  17.792  29.143   5.936  0.0712  0.3716  0.0569
    1DIPC   D2B 5986  17.707  29.402   5.590  0.1245 -0.1836 -0.1538
    1DIPC   D3B 5987  17.601  29.807   5.842  0.0964 -0.2046  0.2090
    1DIPC   C4B 5988  17.554  30.260   5.581  0.0195  0.1247  0.0360
    1DIPC   NC3 5989  16.171  26.270   6.850 -0.2815  0.1427 -0.0770
    1DIPC   PO4 5990  15.972  26.704   6.924  0.2183  0.2546  0.4068
    1DIPC   GL1 5991  15.763  26.536   6.686  0.0469 -0.0032 -0.0532
    1DIPC   GL2 5992  15.724  26.823   6.487  0.0525  0.0864 -0.1818
    1DIPC   C1A 5993  16.045  26.433   6.281  0.1512  0.0991 -0.1570
    1DIPC   D2A 5994  16.503  26.490   6.095 -0.0966  0.0480 -0.4074
    1DIPC   D3A 5995  16.585  26.218   6.524 -0.2769 -0.0569  0.0098
    1DIPC   C4A 5996  16.776  25.845   6.421 -0.0365 -0.0477  0.2925
    1DIPC   C1B 5997  15.441  27.046   6.157  0.0217  0.1376  0.3158
    1DIPC   D2B 5998  15.093  26.899   5.917 -0.0463  0.0510  0.2778
    1DIPC   D3B 5999  15.213  27.158   5.564  0.1053  0.0364  0.0999
    1DIPC   C4B 6000  15.206  27.084   5.078 -0.1085  0.0946  0.1929
    1DIPC   NC3 6001   4.694   2.129   6.902 -0.4539 -0.1402 -0.0076
    1DIPC   PO4 6002   4.548   2.582   6.790 -0.1705  0.1111  0.3152
    1DIPC   GL1 6003   4.469   2.648   6.432  0.2455  0.0778 -0.2103
    1DIPC   GL2 6004   4.644   2.996   6.318  0.1323  0.2835  0.2214
    1DIPC   C1A 6005   4.542   2.435   5.970 -0.1207  0.1161 -0.0302
    1DIPC   D2A 6006   4.642   2.327   5.530  0.0849 -0.0937 -0.2295
    1DIPC   D3A 6007   5.088   2.362   5.667 -0.2906  0.0262  0.1511
    1DIPC   C4A 6008   5.397   2.497   5.391 -0.1565  0.3240  0.2491
    1DIPC   C1B 6009   4.851   2.851   5.995 -0.1160 -0.1165 -0.1350
    1DIPC   D2B 6010   4.742   2.767   5.584 -0.0199 -0.3329  0.0962
    1DIPC   D3B 6011   5.125   2.869   5.535 -0.1204 -0.1183 -0.3265
    1DIPC   C4B 6012   5.433   3.151   5.254  0.2934  0.0369 -0.2312
    1DIPC   NC3 6013  27.430  28.808   6.911  0.0664 -0.0912  0.1291
    1DIPC   PO4 6014  27.448  29.028   6.661  0.0157 -0.0828  0.0438
    1DIPC   GL1 6015  27.606  29.002   6.244  0.1062  0.1337 -0.0479
    1DIPC   GL2 6016  27.784  29.299   6.190  0.0665  0.1851 -0.1319
    1DIPC   C1A 6017  27.420  28.907   5.871  0.2601  0.1608 -0.4988
    1DIPC   D2A 6018  27.138  28.668   5.600 -0.1638 -0.0667  0.1727
    1DIPC   D3A 6019  26.782  28.871   5.823 -0.1132 -0.0418  0.1939
    1DIPC   C4A 6020  26.652  29.235   6.053 -0.1643 -0.0374  0.3918
    1DIPC   C1B 6021  27.944  28.937   5.869 -0.1586 -0.3548  0.1820
    1DIPC   D2B 6022  27.869  28.499   5.625  0.0450  0.0877 -0.4601
    1DIPC   D3B 6023  27.569  28.745   5.431 -0.4718  0.2932  0.1346
    1DIPC   C4B 6024  27.758  28.943   5.016 -0.1665 -0.0196  0.2661
    1DIPC   NC3 6025  13.556   1.529   7.103 -0.0036  0.2587 -0.0672
    1DIPC   PO4 6026  13.117   1.403   7.128 -0.0811  0.0642  0.3436
    1DIPC   GL1 6027  13.211   1.481   6.734 -0.2857  0.0540  0.1220
    1DIPC   GL2 6028  13.259   1.154   6.511  0.1291  0.0631 -0.1331
    1DIPC   C1A 6029  13.355   1.579   6.306  0.0228  0.0556 -0.0139
    1DIPC   D2A 6030  13.623   1.372   6.111  0.3382 -0.0226 -0.1878
    1DIPC   D3A 6031  13.741   1.417   5.657 -0.1775 -0.2454  0.1527
    1DIPC   C4A 6032  13.588   1.735   5.357  0.0925 -0.0737  0.2696
    1DIPC   C1B 6033  13.056   0.867   6.285  0.1317  0.2115  0.1796
    1DIPC   D2B 6034  12.663   0.830   5.972  0.0449  0.2507 -0.3857
    1DIPC   D3B 6035  12.505   0.568   5.641  0.0322 -0.2229 -0.2059
    1DIPC   C4B 6036  12.088   0.310   5.564  0.0936 -0.3262  0.0294
    1DIPC   NC3 6037   7.464   1.312   6.963 -0.1854 -0.1405 -0.2928
    1DIPC   PO4 6038   7.546   0.972   6.756 -0.2549  0.0562  0.1950
    1DIPC   GL1 6039   7.560   0.919   6.386  0.0256 -0.1119  0.1212
    1DIPC   GL2 6040   7.755   0.663   6.430  0.2946 -0.2203 -0.0558
    1DIPC   C1A 6041   7.355   1.067   6.002  0.1762  0.0453  0.0063
    1DIPC   D2A 6042   6.888   1.234   5.813  0.1935 -0.0120 -0.1637
    1DIPC   D3A 6043   6.519   1.310   5.549  0.0964  0.1180  0.1236
    1DIPC   C4A 6044   6.632   1.300   5.162 -0.0758 -0.0291 -0.2318
    1DIPC   C1B 6045   7.372   0.572   6.048 -0.0772  0.1506 -0.1390
    1DIPC   D2B 6046   7.062   0.305   6.133 -0.0593  0.1101 -0.0797
    1DIPC   D3B 6047   6.725   0.063   5.845  0.2019 -0.0106  0.0268
    1DIPC   C4B 6048   6.463   0.355   5.650 -0.1466  0.1576  0.0705
    1DIPC   NC3 6049  10.297   6.244   7.297  0.2838 -0.0507 -0.1862
    1DIPC   PO4 6050   9.984   5.945   7.106 -0.0764 -0.1993 -0.1222
    1DIPC   GL1 6051  10.003   5.738   6.682  0.1190 -0.1127  0.1784
    1DIPC   GL2 6052  10.340   5.496   6.620 -0.1922  0.1471 -0.0652
    1DIPC   C1A 6053  10.056   5.947   6.310  0.1257 -0.1791 -0.0363
    1DIPC   D2A 6054   9.971   5.771   5.879 -0.1419  0.0822  0.2188
    1DIPC   D3A 6055  10.030   5.944   5.479 -0.0724  0.2021  0.0153
    1DIPC   C4A 6056  10.193   5.881   5.128 -0.1187 -0.0305  0.1203
    1DIPC   C1B 6057  10.405   5.608   6.199 -0.1915 -0.3371  0.2400
    1DIPC   D2B 6058  10.444   5.584   5.786 -0.0880 -0.0488 -0.0594
    1DIPC   D3B 6059  10.594   5.941   5.483  0.0824  0.1714  0.0794
    1DIPC   C4B 6060  10.781   6.324   5.580 -0.3173 -0.0794 -0.2834
    1DIPC   NC3 6061   6.944  22.834   6.123 -0.0512  0.2428 -0.0762
    1DIPC   PO4 6062   7.271  22.633   5.907  0.1925 -0.0030  0.0985
    1DIPC   GL1 6063   7.193  22.842   5.449  0.2112 -0.0756 -0.1179
    1DIPC   GL2 6064   7.387  23.094   5.373  0.0665 -0.3409  0.0345
    1DIPC   C1A 6065   6.881  22.805   5.137  0.2263 -0.0045 -0.1328
    1DIPC   D2A 6066   7.103  22.418   4.834 -0.1409  0.0549  0.2241
    1DIPC   D3A 6067   6.803  22.157   5.004  0.0099  0.1885  0.3218
    1DIPC   C4A 6068   6.438  22.105   4.808  0.2156 -0.2243 -0.1761
    1DIPC   C1B 6069   7.181  23.209   4.941 -0.2170  0.1775 -0.0367
    1DIPC   D2B 6070   7.137  23.338   4.429  0.0047  0.1696  0.0317
    1DIPC   D3B 6071   7.320  23.059   4.147 -0.1971  0.2696  0.0465
    1DIPC   C4B 6072   7.057  22.773   3.813  0.0007 -0.0402 -0.1311
    1DIPC   NC3 6073   0.853  23.855   5.731  0.1483  0.1471 -0.0679
    1DIPC   PO4 6074   0.828  24.255   5.736 -0.0127  0.0271  0.4410
    1DIPC   GL1 6075   0.501  24.361   5.515 -0.0442  0.0692  0.1529
    1DIPC   GL2 6076   0.235  24.590   5.680 -0.0969 -0.4939  0.1825
    1DIPC   C1A 6077   0.390  24.543   5.091 -0.3037  0.0949 -0.1116
    1DIPC   D2A 6078   0.333  24.399   4.723  0.0247 -0.2525 -0.4564
    1DIPC   D3A 6079   0.338  24.073   4.999  0.3735  0.2781  0.0540
    1DIPC   C4A 6080   0.723  23.768   4.970  0.1084  0.6268 -0.4792
    1DIPC   C1B 6081  -0.005  24.781   5.364 -0.1967 -0.0384  0.2079
    1DIPC   D2B 6082  -0.184  24.854   5.002  0.2261  0.1460  0.2242
    1DIPC   D3B 6083  -0.526  24.608   4.758 -0.0463  0.0275 -0.0095
    1DIPC   C4B 6084  -0.761  24.923   4.511 -0.1028 -0.2304 -0.1074
    1DIPC   NC3 6085   4.223  28.981   7.197 -0.1552  0.1401  0.0887
    1DIPC   PO4 6086   4.598  28.774   6.770  0.1553  0.1341 -0.0658
    1DIPC   GL1 6087   4.694  28.837   6.287 -0.0498  0.1685  0.1305
    1DIPC   GL2 6088   4.994  28.933   6.168 -0.1479  0.0099  0.0808
    1DIPC   C1A 6089   4.457  28.674   6.099 -0.3475  0.1050 -0.1048
    1DIPC   D2A 6090   4.125  28.614   5.757 -0.1553  0.0399  0.2220
    1DIPC   D3A 6091   4.383  28.785   5.587 -0.3010  0.3934 -0.0740
    1DIPC   C4A 6092   4.652  28.972   5.731  0.1063  0.0873 -0.0824
    1DIPC   C1B 6093   4.940  28.626   5.926 -0.0938  0.2287 -0.4245
    1DIPC   D2B 6094   4.651  28.411   5.686  0.1828 -0.3010 -0.3673
    1DIPC   D3B 6095   4.737  28.604   5.288  0.2375 -0.0900  0.0180
    1DIPC   C4B 6096   5.146  28.402   5.104 -0.0377  0.1764 -0.0986
    1DIPC   NC3 6097  27.016  16.524   6.047 -0.2916  0.2007  0.0902
    1DIPC   PO4 6098  27.152  16.202   5.853 -0.2219  0.2886 -0.0032
    1DIPC   GL1 6099  27.240  16.147   5.442 -0.1237 -0.0148  0.0037
    1DIPC   GL2 6100  27.604  16.093   5.325  0.0797 -0.2445  0.1523
    1DIPC   C1A 6101  27.299  16.097   4.941  0.1179 -0.1176  0.0211
    1DIPC   D2A 6102  27.125  16.063   4.525  0.2751 -0.0939  0.0901
    1DIPC   D3A 6103  27.562  16.043   4.324 -0.0367  0.1875  0.2547
    1DIPC   C4A 6104  27.899  16.314   4.400  0.0288  0.1572 -0.2326
    1DIPC   C1B 6105  27.969  15.926   5.251 -0.1046  0.1325 -0.2187
    1DIPC   D2B 6106  28.318  15.914   4.925  0.2568  0.1434  0.0829
    1DIPC   D3B 6107  28.320  16.195   4.588 -0.1822 -0.2126 -0.0375
    1DIPC   C4B 6108  28.244  16.581   4.658 -0.4590  0.2057  0.1779
    1DIPC   NC3 6109  24.057   4.943   6.655  0.0376  0.1008  0.0711
    1DIPC   PO4 6110  23.968   5.170   6.497  0.1408 -0.1536  0.5690
    1DIPC   GL1 6111  23.854   4.874   6.120  0.0691  0.0110  0.4356
    1DIPC   GL2 6112  23.670   5.135   5.837 -0.0309  0.0834  0.1116
    1DIPC   C1A 6113  23.542   4.534   6.078  0.0137 -0.6156 -0.1476
    1DIPC   D2A 6114  23.134   4.556   6.076 -0.0419 -0.0014 -0.2064
    1DIPC   D3A 6115  22.928   4.211   5.795 -0.0751  0.0564  0.0695
    1DIPC   C4A 6116  22.549   4.181   5.571  0.0961 -0.0489  0.0370
    1DIPC   C1B 6117  23.772   4.725   5.648  0.2489  0.2763 -0.0381
    1DIPC   D2B 6118  23.903   4.582   5.207 -0.0080  0.2705 -0.1942
    1DIPC   D3B 6119  23.810   4.242   4.893  0.3259  0.1267  0.0271
    1DIPC   C4B 6120  23.543   3.925   4.983  0.5404 -0.2556 -0.1859
    1DIPC   NC3 6121  21.214   1.005   7.194 -0.2491  0.1216 -0.1900
    1DIPC   PO4 6122  21.337   1.189   6.877 -0.0790  0.1219  0.1831
    1DIPC   GL1 6123  21.416   1.270   6.576  0.1810 -0.0907  0.1746
    1DIPC   GL2 6124  21.182   1.330   6.359  0.3997  0.0518 -0.0410
    1DIPC   C1A 6125  21.676   1.072   6.249  0.2223  0.0643 -0.2439
    1DIPC   D2A 6126  21.881   0.999   5.973  0.0444  0.2819  0.4602
    1DIPC   D3A 6127  22.036   1.151   5.549  0.3202  0.1667  0.1092
    1DIPC   C4A 6128  21.844   1.504   5.272 -0.0560  0.1795  0.1361
    1DIPC   C1B 6129  21.452   1.441   6.051 -0.0603  0.1427 -0.1358
    1DIPC   D2B 6130  21.535   1.557   5.676 -0.3619  0.1311 -0.0154
    1DIPC   D3B 6131  21.190   1.840   5.667 -0.1930  0.0951  0.0304
    1DIPC   C4B 6132  20.712   1.736   5.669 -0.1259 -0.0849  0.0812
    1DIPC   NC3 6133  15.855   7.153   6.590 -0.1726  0.0936 -0.0346
    1DIPC   PO4 6134  16.301   6.992   6.531  0.1055  0.1236  0.0080
    1DIPC   GL1 6135  16.456   6.830   6.049  0.0782  0.0681 -0.6388
    1DIPC   GL2 6136  16.707   6.994   5.907 -0.1072 -0.2513 -0.3247
    1DIPC   C1A 6137  16.580   6.594   5.633  0.1181  0.1183 -0.2842
    1DIPC   D2A 6138  16.611   6.726   5.386 -0.1160  0.1021 -0.1612
    1DIPC   D3A 6139  16.908   6.822   5.259  0.0102 -0.0389 -0.0431
    1DIPC   C4A 6140  17.061   6.971   5.571 -0.1565  0.2647  0.1460
    1DIPC   C1B 6141  16.650   7.247   5.520 -0.2680  0.0274  0.0949
    1DIPC   D2B 6142  16.264   7.262   5.230 -0.0974 -0.4218 -0.2045
    1DIPC   D3B 6143  16.518   7.004   4.900 -0.1816 -0.0370  0.0747
    1DIPC   C4B 6144  16.914   6.936   4.690  0.3020 -0.1970 -0.2219
    1DIPC   NC3 6145  13.990   7.865   6.974  0.0007  0.1390 -0.1154
    1DIPC   PO4 6146  13.888   8.255   7.111 -0.3811  0.0139  0.1142
    1DIPC   GL1 6147  13.907   8.360   6.698 -0.0501  0.2582 -0.0184
    1DIPC   GL2 6148  13.680   8.309   6.442 -0.2667  0.2943  0.1204
    1DIPC   C1A 6149  14.093   8.499   6.346  0.1941 -0.2070 -0.0274
    1DIPC   D2A 6150  14.156   8.466   5.989 -0.3665  0.1636  0.0129
    1DIPC   D3A 6151  13.797   8.123   5.825  0.0527  0.1285  0.0017
    1DIPC   C4A 6152  13.913   7.955   5.457 -0.0666  0.1837  0.0269
    1DIPC   C1B 6153  13.877   7.877   6.280  0.1733 -0.0886  0.0827
    1DIPC   D2B 6154  13.964   7.440   6.254 -0.0946 -0.2046 -0.0224
    1DIPC   D3B 6155  13.973   7.608   5.799 -0.2934  0.0743 -0.1130
    1DIPC   C4B 6156  13.995   7.483   5.335  0.1678  0.0798 -0.3726
    1DIPC   NC3 6157  20.440   7.117   6.591  0.0925 -0.0639 -0.0237
    1DIPC   PO4 6158  20.260   6.663   6.313 -0.0554 -0.0157  0.0315
    1DIPC   GL1 6159  20.407   6.957   6.044 -0.0803 -0.1128 -0.1801
    1DIPC   GL2 6160  20.707   7.206   6.126  0.1685 -0.1373 -0.2503
    1DIPC   C1A 6161  20.736   6.843   5.750  0.0212 -0.0164 -0.0885
    1DIPC   D2A 6162  20.858   7.079   5.354  0.1538  0.3398  0.1323
    1DIPC   D3A 6163  21.043   7.450   5.078  0.2229 -0.0345 -0.1118
    1DIPC   C4A 6164  21.033   7.710   4.609  0.2322 -0.0396  0.0208
    1DIPC   C1B 6165  20.433   7.242   5.698 -0.1194  0.2643  0.1218
    1DIPC   D2B 6166  20.506   7.521   5.336  0.0676 -0.0398 -0.0611
    1DIPC   D3B 6167  21.026   7.612   5.546  0.1446  0.2994  0.1133
    1DIPC   C4B 6168  21.432   7.527   5.411  0.0421 -0.3209 -0.1839
    1DIPC   NC3 6169   9.276  10.708   7.633  0.0777  0.1134  0.0036
    1DIPC   PO4 6170   9.627  10.540   7.528 -0.0056  0.2972  0.0119
    1DIPC   GL1 6171   9.743  10.472   7.212  0.1653  0.1911 -0.2951
    1DIPC   GL2 6172   9.925  10.207   7.065 -0.1503  0.0974 -0.3258
    1DIPC   C1A 6173   9.749  10.700   6.850 -0.1029  0.2133 -0.1957
    1DIPC   D2A 6174   9.554  10.892   6.426 -0.2947 -0.2704 -0.1330
    1DIPC   D3A 6175   9.206  10.822   6.141  0.0807 -0.2981 -0.0033
    1DIPC   C4A 6176   9.264  10.903   5.693  0.3162 -0.0529 -0.1475
    1DIPC   C1B 6177  10.246  10.029   6.761 -0.0707 -0.1525 -0.1104
    1DIPC   D2B 6178  10.393   9.792   6.402 -0.0684 -0.0404  0.0426
    1DIPC   D3B 6179  10.242  10.168   6.217 -0.3281  0.2870 -0.0716
    1DIPC   C4B 6180   9.958  10.237   6.001 -0.0073 -0.0957  0.0853
    1DIPC   NC3 6181  10.605  23.118   6.275  0.2975  0.3863 -0.0270
    1DIPC   PO4 6182  11.023  23.008   6.233  0.0165  0.0989  0.2648
    1DIPC   GL1 6183  11.031  22.926   5.824 -0.0952  0.0642  0.0833
    1DIPC   GL2 6184  10.674  22.932   5.858 -0.1587 -0.1847 -0.1111
    1DIPC   C1A 6185  10.997  22.907   5.425  0.1907 -0.0617  0.1324
    1DIPC   D2A 6186  10.805  22.806   5.068  0.1505 -0.1516 -0.2625
    1DIPC   D3A 6187  11.177  22.795   4.940  0.2698 -0.2384  0.1781
    1DIPC   C4A 6188  11.277  22.898   4.473 -0.5028  0.1067  0.0186
    1DIPC   C1B 6189  10.643  23.269   5.434  0.2278  0.2590  0.1282
    1DIPC   D2B 6190  10.752  23.483   5.094 -0.0305 -0.2540 -0.3211
    1DIPC   D3B 6191  10.627  23.839   5.143  0.1245  0.0509 -0.4184
    1DIPC   C4B 6192  10.403  24.233   5.082  0.2988  0.1405  0.0467
    1DIPC   NC3 6193  25.242  16.639   5.968  0.2412 -0.1329 -0.0166
    1DIPC   PO4 6194  25.643  16.893   5.812  0.0353 -0.1581  0.0189
    1DIPC   GL1 6195  25.467  16.719   5.441  0.0779  0.0834  0.0001
    1DIPC   GL2 6196  25.625  16.759   5.208 -0.2501  0.0618 -0.2445
    1DIPC   C1A 6197  25.032  16.663   5.148 -0.0288  0.4329  0.0689
    1DIPC   D2A 6198  25.008  16.599   4.681  0.1167 -0.1648  0.3599
    1DIPC   D3A 6199  25.372  16.555   4.780 -0.1522 -0.0404 -0.1771
    1DIPC   C4A 6200  25.335  16.253   5.143  0.3108  0.0795 -0.0866
    1DIPC   C1B 6201  25.840  16.734   4.842  0.0378 -0.1485  0.2275
    1DIPC   D2B 6202  25.713  16.605   4.402  0.1075  0.1252  0.3954
    1DIPC   D3B 6203  25.451  16.888   4.339 -0.2508 -0.1495  0.0790
    1DIPC   C4B 6204  25.466  17.277   4.295 -0.1015 -0.1288 -0.0134
    1DIPC   NC3 6205  27.441  14.253   6.026 -0.1151  0.2537  0.1277
    1DIPC   PO4 6206  27.555  14.504   5.703  0.0769 -0.0590  0.0674
    1DIPC   GL1 6207  27.487  14.687   5.229 -0.5113 -0.0747  0.2093
    1DIPC   GL2 6208  27.332  14.985   5.219 -0.1796 -0.1089 -0.1179
    1DIPC   C1A 6209  27.279  14.703   4.814  0.1548 -0.0683  0.0727
    1DIPC   D2A 6210  27.234  14.384   4.501  0.5114  0.0834  0.1829
    1DIPC   D3A 6211  27.506  14.282   4.322 -0.1058 -0.0048  0.0345
    1DIPC   C4A 6212  27.655  14.439   3.933  0.0986 -0.1486 -0.0221
    1DIPC   C1B 6213  27.077  15.121   4.920  0.0305 -0.2581  0.0006
    1DIPC   D2B 6214  27.354  15.512   4.728  0.0720 -0.2065 -0.2136
    1DIPC   D3B 6215  27.475  15.543   4.250 -0.0960  0.1572  0.0318
    1DIPC   C4B 6216  27.275  15.877   3.950  0.1401 -0.0853 -0.1898
    1DIPC   NC3 6217   5.286  29.405   6.609  0.1079  0.0819 -0.1707
    1DIPC   PO4 6218   5.449  29.020   6.324 -0.1157 -0.2721 -0.2082
    1DIPC   GL1 6219   5.575  29.056   5.836 -0.0370 -0.1059  0.1931
    1DIPC   GL2 6220   5.971  29.022   5.939  0.1048 -0.2227  0.1102
    1DIPC   C1A 6221   5.525  29.248   5.453  0.1893 -0.2119 -0.2769
    1DIPC   D2A 6222   5.499  29.401   5.032 -0.1935  0.1222  0.0880
    1DIPC   D3A 6223   5.914  29.535   5.228  0.1967 -0.2137  0.2714
    1DIPC   C4A 6224   6.062  29.872   5.344 -0.0874 -0.0360  0.3028
    1DIPC   C1B 6225   5.976  29.018   5.479  0.1651  0.0947 -0.0418
    1DIPC   D2B 6226   5.861  29.057   5.102 -0.2353 -0.1894 -0.1314
    1DIPC   D3B 6227   5.520  28.764   5.241  0.0560 -0.0044  0.3365
    1DIPC   C4B 6228   5.561  28.310   5.293 -0.1524  0.1973 -0.1680
    1DIPC   NC3 6229  19.236   0.149   6.836 -0.0302 -0.2245  0.3828
    1DIPC   PO4 6230  19.218   0.617   6.679  0.0702  0.2867 -0.0947
    1DIPC   GL1 6231  19.463   0.266   6.398  0.0010 -0.1106  0.0101
    1DIPC   GL2 6232  19.492   0.376   6.003 -0.0298 -0.2331 -0.2052
    1DIPC   C1A 6233  19.859   0.131   6.258  0.0165 -0.2600 -0.0156
    1DIPC   D2A 6234  20.114   0.095   5.850 -0.2669 -0.0995  0.1546
    1DIPC   D3A 6235  20.274  -0.215   5.543 -0.2255  0.0275  0.0819
    1DIPC   C4A 6236  20.563  -0.608   5.402  0.0103  0.0439 -0.1267
    1DIPC   C1B 6237  19.797   0.508   5.836  0.0371  0.1662  0.0256
    1DIPC   D2B 6238  19.951   0.567   5.436 -0.0171  0.0196  0.0713
    1DIPC   D3B 6239  19.981   0.166   5.345  0.0895 -0.2629  0.0983
    1DIPC   C4B 6240  20.331  -0.033   5.090 -0.1181  0.1495  0.1589
    1DIPC   NC3 6241  21.640   3.220   6.604 -0.2607  0.0264  0.0306
    1DIPC   PO4 6242  22.008   3.343   6.769 -0.2847  0.1999 -0.0333
    1DIPC   GL1 6243  22.095   3.314   6.347 -0.2341 -0.0179  0.0052
    1DIPC   GL2 6244  22.377   3.381   6.145  0.0094 -0.2386  0.0977
    1DIPC   C1A 6245  22.256   2.954   6.096  0.0988  0.2033 -0.0468
    1DIPC   D2A 6246  22.669   2.838   5.892 -0.0054  0.2643 -0.1425
    1DIPC   D3A 6247  22.316   2.808   5.651  0.1727 -0.2439  0.0424
    1DIPC   C4A 6248  21.981   3.003   5.347 -0.1437  0.2529  0.2223
    1DIPC   C1B 6249  22.414   3.334   5.710  0.0455 -0.1023  0.2083
    1DIPC   D2B 6250  22.218   3.442   5.383  0.1300 -0.0220 -0.2253
    1DIPC   D3B 6251  22.360   3.698   5.070 -0.1194  0.0452 -0.0652
    1DIPC   C4B 6252  22.675   3.659   4.774  0.0048  0.2275 -0.2508
    1DIPC   NC3 6253  29.630  14.266   5.889 -0.1377 -0.2664 -0.0660
    1DIPC   PO4 6254  30.053  14.165   5.720 -0.2821  0.0222  0.0320
    1DIPC   GL1 6255  30.128  14.284   5.282 -0.1879  0.0025  0.0635
    1DIPC   GL2 6256  30.251  14.637   5.209 -0.0138 -0.1025  0.0754
    1DIPC   C1A 6257  30.234  14.238   4.806 -0.2336 -0.0104  0.0470
    1DIPC   D2A 6258  30.555  14.418   4.553 -0.1609  0.1022 -0.1105
    1DIPC   D3A 6259  30.155  14.402   4.345  0.1299  0.1571 -0.0220
    1DIPC   C4A 6260  29.888  14.091   4.313 -0.2641 -0.2017  0.2299
    1DIPC   C1B 6261  30.198  14.795   4.839 -0.0248 -0.0951  0.0071
    1DIPC   D2B 6262  30.443  14.929   4.478  0.0714 -0.1323  0.3542
    1DIPC   D3B 6263  30.193  14.964   4.022 -0.1573 -0.0017 -0.0255
    1DIPC   C4B 6264  30.506  14.960   3.689  0.0793  0.0268  0.0822
    1DIPC   NC3 6265  28.614  11.848   6.054  0.1523  0.2350  0.0939
    1DIPC   PO4 6266  28.944  12.147   6.069  0.1865  0.3730  0.2681
    1DIPC   GL1 6267  28.972  11.908   5.670 -0.3076  0.0848 -0.0383
    1DIPC   GL2 6268  28.718  11.744   5.526 -0.3049  0.1451  0.0851
    1DIPC   C1A 6269  29.213  11.767   5.324 -0.0140 -0.1403  0.0288
    1DIPC   D2A 6270  29.223  11.793   4.983  0.1402 -0.1148 -0.1647
    1DIPC   D3A 6271  29.218  12.121   4.616  0.2785 -0.0096  0.0819
    1DIPC   C4A 6272  28.917  12.177   4.259 -0.0290  0.1981 -0.0078
    1DIPC   C1B 6273  28.776  11.879   5.052  0.0092  0.0763 -0.0092
    1DIPC   D2B 6274  28.754  11.870   4.704 -0.0902  0.1489 -0.1219
    1DIPC   D3B 6275  28.335  11.798   4.790 -0.2707 -0.0194 -0.1860
    1DIPC   C4B 6276  28.246  11.777   5.230 -0.0443  0.5026 -0.3842
    1DIPC   NC3 6277  27.700  17.167   6.259 -0.0093  0.0760  0.0968
    1DIPC   PO4 6278  27.559  16.913   6.023 -0.1395 -0.3078  0.1062
    1DIPC   GL1 6279  27.355  16.733   5.638 -0.1561 -0.1709  0.1379
    1DIPC   GL2 6280  27.595  16.474   5.587 -0.0033  0.2230 -0.0759
    1DIPC   C1A 6281  27.228  17.079   5.309  0.1568  0.4445 -0.2515
    1DIPC   D2A 6282  27.202  16.977   4.847 -0.0320 -0.0211 -0.2774
    1DIPC   D3A 6283  27.482  17.214   4.596  0.1003 -0.1855  0.1103
    1DIPC   C4A 6284  27.542  17.118   4.192 -0.0302 -0.2766 -0.0676
    1DIPC   C1B 6285  27.570  16.664   5.161  0.0178 -0.1718 -0.0917
    1DIPC   D2B 6286  27.610  16.761   4.604  0.1259 -0.0721 -0.1503
    1DIPC   D3B 6287  27.909  17.029   4.535  0.0530 -0.1074  0.2746
    1DIPC   C4B 6288  28.035  17.103   4.120  0.1853 -0.0641  0.1993
    1DIPC   NC3 6289   7.542  16.607   5.772  0.0064 -0.4726 -0.0611
    1DIPC   PO4 6290   7.828  16.700   5.965 -0.0336  0.0491  0.0314
    1DIPC   GL1 6291   7.848  16.986   5.662 -0.0525  0.0029  0.1892
    1DIPC   GL2 6292   7.536  16.975   5.402 -0.2178  0.3497 -0.0411
    1DIPC   C1A 6293   8.143  17.282   5.659  0.0485  0.2650 -0.0472
    1DIPC   D2A 6294   8.044  17.749   5.789 -0.2485 -0.3480 -0.0964
    1DIPC   D3A 6295   8.116  18.131   5.538 -0.0016  0.2619 -0.0652
    1DIPC   C4A 6296   8.368  18.286   5.400 -0.2613 -0.1041  0.2558
    1DIPC   C1B 6297   7.583  16.956   4.982 -0.4017  0.0645 -0.2519
    1DIPC   D2B 6298   7.887  16.844   4.725 -0.0846 -0.2478 -0.1553
    1DIPC   D3B 6299   7.620  16.600   4.509 -0.1759 -0.0628  0.1003
    1DIPC   C4B 6300   7.492  16.697   4.105 -0.2160 -0.2366  0.0052
    1DIPC   NC3 6301   8.761  11.347   7.331  0.0279  0.2599  0.0151
    1DIPC   PO4 6302   8.346  11.386   7.273 -0.1791 -0.2101 -0.0978
    1DIPC   GL1 6303   8.484  11.111   6.954 -0.0908 -0.1344 -0.0217
    1DIPC   GL2 6304   8.793  11.313   6.845  0.1434  0.1132  0.0806
    1DIPC   C1A 6305   8.156  10.892   6.748 -0.0338 -0.1501 -0.1073
    1DIPC   D2A 6306   8.217  10.459   6.527 -0.2363 -0.0117  0.0201
    1DIPC   D3A 6307   8.650  10.175   6.426  0.2086 -0.0326 -0.3029
    1DIPC   C4A 6308   8.446   9.819   6.283 -0.1009 -0.1356  0.1905
    1DIPC   C1B 6309   8.515  11.227   6.398 -0.0900  0.0178 -0.0621
    1DIPC   D2B 6310   8.336  10.955   6.090 -0.0446  0.1320  0.1604
    1DIPC   D3B 6311   8.086  10.705   5.699 -0.1236  0.2015  0.1095
    1DIPC   C4B 6312   8.247  10.723   5.204 -0.0497  0.0584  0.1451
    1DIPC   NC3 6313  27.762  17.686   6.113  0.0602  0.0141  0.0521
    1DIPC   PO4 6314  27.410  17.625   6.052 -0.3177  0.0116  0.1703
    1DIPC   GL1 6315  27.164  17.694   5.678 -0.0768 -0.2303 -0.0809
    1DIPC   GL2 6316  27.286  18.038   5.533 -0.0192  0.0998 -0.1083
    1DIPC   C1A 6317  26.972  17.493   5.331  0.0023 -0.1589  0.1268
    1DIPC   D2A 6318  26.784  17.281   4.982 -0.0180 -0.0829  0.0204
    1DIPC   D3A 6319  26.729  16.910   5.082  0.0638 -0.3511 -0.3222
    1DIPC   C4A 6320  26.638  16.915   5.495  0.1675 -0.0025 -0.0550
    1DIPC   C1B 6321  27.472  17.772   5.216 -0.1454  0.2304  0.0031
    1DIPC   D2B 6322  27.257  17.558   4.852  0.0577  0.2913  0.2505
    1DIPC   D3B 6323  27.312  17.725   4.489 -0.1134 -0.2931  0.0213
    1DIPC   C4B 6324  27.087  18.016   4.543  0.0361 -0.1764 -0.1030
    1DIPC   NC3 6325  15.097  24.195   6.465 -0.0662  0.0101 -0.1516
    1DIPC   PO4 6326  15.583  24.269   6.563 -0.1279 -0.1389  0.1930
    1DIPC   GL1 6327  15.718  23.897   6.306 -0.0398 -0.1140  0.1780
    1DIPC   GL2 6328  15.439  24.023   6.103  0.0386  0.0354  0.1544
    1DIPC   C1A 6329  15.942  23.783   5.900 -0.0836 -0.1816 -0.0577
    1DIPC   D2A 6330  16.163  23.828   5.527  0.4133  0.2095 -0.0824
    1DIPC   D3A 6331  16.104  23.577   5.235  0.0081  0.0925 -0.0663
    1DIPC   C4A 6332  16.546  23.484   5.028 -0.1514 -0.2445  0.0218
    1DIPC   C1B 6333  15.508  23.886   5.710  0.0663 -0.0678  0.1026
    1DIPC   D2B 6334  15.685  23.836   5.343  0.0912 -0.1762  0.0607
    1DIPC   D3B 6335  15.857  24.061   5.044 -0.0652 -0.0991 -0.1548
    1DIPC   C4B 6336  16.322  23.912   4.990 -0.1342 -0.0392 -0.0834
    1DIPC   NC3 6337  13.233   3.454   6.910 -0.3445  0.2524  0.1358
    1DIPC   PO4 6338  12.746   3.464   6.988  0.1494 -0.1126 -0.1063
    1DIPC   GL1 6339  12.888   3.471   6.585  0.0058  0.0582  0.2814
    1DIPC   GL2 6340  13.120   3.328   6.438  0.0733 -0.0507  0.0509
    1DIPC   C1A 6341  12.774   3.598   6.186  0.0756 -0.0128  0.0770
    1DIPC   D2A 6342  12.513   3.828   5.940  0.0185  0.1099  0.2218
    1DIPC   D3A 6343  12.692   3.694   5.502  0.1277 -0.0957  0.0274
    1DIPC   C4A 6344  12.984   3.813   5.294 -0.0021 -0.0138  0.0400
    1DIPC   C1B 6345  13.325   3.452   6.089 -0.2204  0.1114  0.1261
    1DIPC   D2B 6346  13.576   3.662   5.757  0.1599  0.0325  0.0402
    1DIPC   D3B 6347  13.761   3.359   5.423  0.0514 -0.1604  0.1826
    1DIPC   C4B 6348  13.497   3.527   5.057  0.1958  0.2131  0.2987
    1DIPC   NC3 6349   2.477  24.442   5.441  0.1004  0.0424  0.0948
    1DIPC   PO4 6350   2.544  24.031   5.415 -0.0620 -0.4247  0.1288
    1DIPC   GL1 6351   2.574  24.023   5.050 -0.0502  0.0026  0.1970
    1DIPC   GL2 6352   2.336  24.262   4.940 -0.0709  0.0015  0.1256
    1DIPC   C1A 6353   2.909  24.026   4.837  0.0121  0.1298 -0.0039
    1DIPC   D2A 6354   3.103  23.925   4.484 -0.2598  0.0252  0.0013
    1DIPC   D3A 6355   2.898  24.378   4.281  0.0592 -0.0262  0.3616
    1DIPC   C4A 6356   2.818  24.358   3.818  0.0734  0.0561  0.1237
    1DIPC   C1B 6357   2.708  24.560   4.798 -0.1533  0.0444 -0.0869
    1DIPC   D2B 6358   3.134  24.594   4.709  0.0205  0.0397 -0.3076
    1DIPC   D3B 6359   3.317  24.746   4.320  0.1236  0.2202  0.0292
    1DIPC   C4B 6360   3.325  24.434   4.041 -0.2575 -0.2130  0.1891
    1DIPC   NC3 6361   3.110   1.521   6.901  0.0051  0.0457  0.2481
    1DIPC   PO4 6362   2.829   1.282   6.768 -0.1644  0.0534  0.3033
    1DIPC   GL1 6363   2.673   1.271   6.370  0.0824  0.0375 -0.0447
    1DIPC   GL2 6364   2.737   0.935   6.258 -0.2358  0.0407  0.2678
    1DIPC   C1A 6365   2.314   1.139   6.158 -0.3139 -0.1395 -0.1627
    1DIPC   D2A 6366   1.869   1.236   6.052  0.0446  0.3569  0.0913
    1DIPC   D3A 6367   2.148   1.124   5.722 -0.2349 -0.2469  0.0637
    1DIPC   C4A 6368   2.008   1.001   5.216  0.0227 -0.0482  0.1607
    1DIPC   C1B 6369   2.982   1.279   5.965  0.0181  0.0250 -0.0752
    1DIPC   D2B 6370   3.073   1.662   6.105 -0.1759  0.0589 -0.1597
    1DIPC   D3B 6371   2.927   2.045   6.083  0.0385 -0.2434  0.0385
    1DIPC   C4B 6372   2.632   2.235   5.865  0.0738  0.1038 -0.0826
    1DIPC   NC3 6373  29.325   8.098   6.467  0.2548  0.2584 -0.5814
    1DIPC   PO4 6374  29.654   7.954   6.198 -0.2999 -0.3222  0.1203
    1DIPC   GL1 6375  29.843   7.791   5.823 -0.0280  0.1408  0.1067
    1DIPC   GL2 6376  30.139   7.800   5.774 -0.1308 -0.3426  0.0122
    1DIPC   C1A 6377  29.903   7.548   5.366 -0.1156  0.1132  0.2760
    1DIPC   D2A 6378  30.016   7.648   4.868  0.1998 -0.0397  0.1145
    1DIPC   D3A 6379  29.619   7.357   4.595 -0.1087  0.0888 -0.3067
    1DIPC   C4A 6380  29.531   7.784   4.643  0.2751 -0.3413 -0.0328
    1DIPC   C1B 6381  30.131   7.966   5.343 -0.0430 -0.1470  0.4455
    1DIPC   D2B 6382  29.893   8.152   4.977  0.0965  0.0553  0.2486
    1DIPC   D3B 6383  30.130   8.515   4.912  0.1625 -0.1217 -0.0719
    1DIPC   C4B 6384  30.525   8.495   5.111  0.2156  0.0152  0.2842
    1DIPC   NC3 6385  26.020  26.957   6.277 -0.1007  0.0069 -0.0074
    1DIPC   PO4 6386  26.387  27.277   6.241  0.1156 -0.3425 -0.1542
    1DIPC   GL1 6387  26.276  27.221   5.843  0.2010 -0.0462 -0.0801
    1DIPC   GL2 6388  26.579  27.234   5.774 -0.0645  0.1100  0.0634
    1DIPC   C1A 6389  25.915  27.125   5.651 -0.1334 -0.5145  0.2843
    1DIPC   D2A 6390  25.510  26.928   5.760 -0.1709  0.2225  0.1405
    1DIPC   D3A 6391  25.478  27.014   5.429 -0.2603  0.1170  0.3081
    1DIPC   C4A 6392  25.152  26.853   5.261 -0.1691 -0.1974 -0.0772
    1DIPC   C1B 6393  26.400  27.352   5.385  0.0875  0.0477 -0.0094
    1DIPC   D2B 6394  26.678  27.537   5.181  0.0805 -0.0898  0.1073
    1DIPC   D3B 6395  26.380  27.456   4.859 -0.3785  0.2798  0.1826
    1DIPC   C4B 6396  26.378  27.678   4.559  0.0431 -0.0326 -0.1660
    1DIPC   NC3 6397   5.976  16.639   6.124 -0.1472 -0.0880 -0.0598
    1DIPC   PO4 6398   5.680  16.508   5.950  0.1460  0.3386  0.1192
    1DIPC   GL1 6399   5.819  16.398   5.515  0.1241  0.2150  0.0113
    1DIPC   GL2 6400   5.712  16.083   5.530 -0.0077  0.3735  0.0903
    1DIPC   C1A 6401   5.970  16.519   5.091  0.1473  0.0610  0.0383
    1DIPC   D2A 6402   6.044  16.762   4.768 -0.1169  0.2745  0.0850
    1DIPC   D3A 6403   6.136  17.020   5.064  0.2936 -0.0134 -0.1388
    1DIPC   C4A 6404   6.569  17.285   4.988  0.1540 -0.4481  0.2074
    1DIPC   C1B 6405   6.038  16.041   5.260 -0.0106 -0.4044  0.2074
    1DIPC   D2B 6406   6.361  15.707   5.130  0.0230 -0.1604  0.2786
    1DIPC   D3B 6407   6.496  15.596   4.784  0.1269 -0.0448 -0.0935
    1DIPC   C4B 6408   6.233  15.773   4.556  0.1523  0.1886 -0.1782
    1DIPC   NC3 6409  28.668  19.092   6.288  0.0071 -0.0961 -0.2664
    1DIPC   PO4 6410  29.092  19.162   6.195  0.0482  0.0322 -0.0693
    1DIPC   GL1 6411  28.927  19.125   5.816 -0.3991  0.0579  0.0844
    1DIPC   GL2 6412  28.918  19.480   5.657  0.0520 -0.1339 -0.2149
    1DIPC   C1A 6413  28.773  18.931   5.551 -0.1060  0.1353 -0.1046
    1DIPC   D2A 6414  28.726  18.524   5.180  0.1266  0.0670  0.2492
    1DIPC   D3A 6415  28.860  18.425   5.591  0.0650  0.0137  0.3652
    1DIPC   C4A 6416  29.220  18.560   5.609 -0.3128  0.0266 -0.0853
    1DIPC   C1B 6417  28.931  19.294   5.248 -0.1906  0.0615  0.1094
    1DIPC   D2B 6418  28.701  19.000   5.002 -0.0787  0.2062 -0.3052
    1DIPC   D3B 6419  28.948  18.857   4.709  0.0963  0.2432  0.0092
    1DIPC   C4B 6420  29.348  19.103   4.799 -0.0561 -0.3964  0.1227
    1DIPC   NC3 6421  27.393  18.834   6.117 -0.0396  0.0805  0.1384
    1DIPC   PO4 6422  27.777  18.579   6.143  0.0878  0.3631  0.1049
    1DIPC   GL1 6423  27.706  18.682   5.721 -0.1059 -0.0751 -0.1542
    1DIPC   GL2 6424  27.702  18.294   5.533 -0.2708  0.1886  0.0431
    1DIPC   C1A 6425  27.393  18.664   5.387  0.0219  0.1233  0.0528
    1DIPC   D2A 6426  27.268  18.775   5.024 -0.3485  0.0347  0.1984
    1DIPC   D3A 6427  27.615  18.817   4.780 -0.1011  0.1877  0.1265
    1DIPC   C4A 6428  27.554  18.809   4.395  0.0949 -0.1191 -0.0509
    1DIPC   C1B 6429  27.649  18.310   5.133  0.0634 -0.0632 -0.3297
    1DIPC   D2B 6430  27.696  17.916   4.772  0.4161 -0.1278 -0.1662
    1DIPC   D3B 6431  27.687  18.166   4.349  0.0638 -0.1039  0.2414
    1DIPC   C4B 6432  27.334  18.081   4.092 -0.1734  0.1550 -0.2090
    1DIPC   NC3 6433   5.912  28.865   6.416 -0.2761  0.1521 -0.2364
    1DIPC   PO4 6434   6.259  28.981   6.597 -0.3387 -0.0926 -0.0899
    1DIPC   GL1 6435   6.510  29.079   6.264  0.0860 -0.0504 -0.2261
    1DIPC   GL2 6436   6.498  28.875   5.962  0.1634 -0.2383 -0.1478
    1DIPC   C1A 6437   6.580  29.389   5.928 -0.4516 -0.1555  0.2152
    1DIPC   D2A 6438   6.859  29.426   5.594  0.0639 -0.1915  0.1085
    1DIPC   D3A 6439   6.723  29.796   5.316  0.1218 -0.1495 -0.0035
    1DIPC   C4A 6440   6.937  30.188   5.372 -0.3168 -0.0679  0.1203
    1DIPC   C1B 6441   6.460  28.737   5.486 -0.1310 -0.1516 -0.0799
    1DIPC   D2B 6442   6.345  28.915   5.015 -0.1077  0.0117 -0.0345
    1DIPC   D3B 6443   6.777  28.989   5.064 -0.0582 -0.1286  0.0649
    1DIPC   C4B 6444   6.905  28.917   5.450 -0.0714 -0.0555 -0.0253
    1DIPC   NC3 6445   4.212   4.823   6.893  0.3030 -0.1213  0.0129
    1DIPC   PO4 6446   4.602   4.827   6.945  0.2695  0.1308 -0.2372
    1DIPC   GL1 6447   4.559   4.940   6.545 -0.0174 -0.1813  0.0407
    1DIPC   GL2 6448   4.836   4.892   6.294  0.0758  0.1164 -0.2161
    1DIPC   C1A 6449   4.356   5.120   6.167 -0.0560  0.1211 -0.1123
    1DIPC   D2A 6450   4.241   4.948   5.729 -0.0208 -0.0984  0.3264
    1DIPC   D3A 6451   4.313   5.344   5.625  0.0157  0.0088 -0.0139
    1DIPC   C4A 6452   4.327   5.409   5.147 -0.1457 -0.2745  0.2689
    1DIPC   C1B 6453   4.746   4.995   5.848 -0.1755 -0.1775  0.1278
    1DIPC   D2B 6454   4.826   4.968   5.328  0.1295 -0.0834  0.0102
    1DIPC   D3B 6455   4.814   5.349   5.396 -0.1508  0.0044 -0.0901
    1DIPC   C4B 6456   4.968   5.580   5.029  0.3252  0.1398  0.1000
    1DIPC   NC3 6457  24.654  23.138   6.756  0.0852 -0.4187  0.2838
    1DIPC   PO4 6458  24.957  22.910   6.595  0.1182  0.2139  0.1303
    1DIPC   GL1 6459  25.213  22.681   6.246 -0.0093  0.3359  0.0377
    1DIPC   GL2 6460  25.240  22.407   6.213 -0.1901  0.1371 -0.0605
    1DIPC   C1A 6461  25.110  22.611   5.777 -0.1302 -0.0476  0.4103
    1DIPC   D2A 6462  25.279  22.683   5.327 -0.2357 -0.0307 -0.1053
    1DIPC   D3A 6463  24.919  22.645   4.940  0.0420 -0.2979  0.0433
    1DIPC   C4A 6464  24.544  22.468   4.995  0.3648 -0.2389  0.0061
    1DIPC   C1B 6465  25.207  22.045   5.973  0.0312 -0.2036 -0.1272
    1DIPC   D2B 6466  24.845  21.850   5.727  0.1932 -0.1866  0.1466
    1DIPC   D3B 6467  24.998  22.185   5.443 -0.1007 -0.0584  0.0393
    1DIPC   C4B 6468  25.399  22.151   5.287 -0.2590 -0.3435  0.0092
    1DIPC   NC3 6469  26.148   8.486   5.987 -0.1189  0.0679 -0.0951
    1DIPC   PO4 6470  26.502   8.864   6.072 -0.1913  0.1003 -0.0387
    1DIPC   GL1 6471  26.159   8.982   5.752  0.2541  0.0830  0.0099
    1DIPC   GL2 6472  26.023   9.195   5.815 -0.0585 -0.1248  0.0464
    1DIPC   C1A 6473  26.187   9.039   5.339 -0.1609  0.1484 -0.0620
    1DIPC   D2A 6474  26.059   8.887   4.904 -0.0505 -0.0523 -0.0313
    1DIPC   D3A 6475  25.931   9.369   5.032 -0.1115  0.0017 -0.2890
    1DIPC   C4A 6476  25.711   9.528   4.668 -0.1969 -0.1949 -0.3284
    1DIPC   C1B 6477  25.690   9.206   5.578  0.0528 -0.0506 -0.4732
    1DIPC   D2B 6478  25.559   9.048   5.066  0.2852 -0.1105  0.1185
    1DIPC   D3B 6479  25.293   9.274   4.840  0.3201  0.1347 -0.2246
    1DIPC   C4B 6480  25.171   9.377   4.389 -0.1795 -0.0351  0.1312
    1DIPC   NC3 6481  10.444  21.490   6.428  0.0430 -0.2103 -0.1162
    1DIPC   PO4 6482  10.382  21.050   6.595 -0.0953 -0.0602  0.2285
    1DIPC   GL1 6483  10.327  21.045   6.171 -0.2597 -0.2112  0.1656
    1DIPC   GL2 6484  10.555  21.174   6.013  0.0390 -0.0053 -0.1827
    1DIPC   C1A 6485  10.231  20.870   5.734  0.0224 -0.5302 -0.0008
    1DIPC   D2A 6486  10.250  20.813   5.305 -0.1044  0.1226 -0.2223
    1DIPC   D3A 6487  10.090  21.166   4.952 -0.0070  0.1834  0.0463
    1DIPC   C4A 6488  10.256  21.524   5.032 -0.0029  0.0384  0.1930
    1DIPC   C1B 6489  10.774  21.305   5.664  0.2570 -0.1126  0.0388
    1DIPC   D2B 6490  10.820  21.426   5.158  0.4881 -0.0451 -0.1012
    1DIPC   D3B 6491  11.026  21.208   4.941  0.1122  0.0930  0.1761
    1DIPC   C4B 6492  10.768  20.928   4.719  0.0478 -0.2791 -0.2263
    1DIPC   NC3 6493   1.119  27.829   6.396 -0.1428  0.0788  0.1781
    1DIPC   PO4 6494   1.148  27.451   6.176  0.3242 -0.2278 -0.2745
    1DIPC   GL1 6495   1.131  27.701   5.728 -0.2617 -0.0086 -0.2282
    1DIPC   GL2 6496   1.182  27.935   5.820  0.0789 -0.0071 -0.0121
    1DIPC   C1A 6497   0.972  27.949   5.382  0.0948  0.3171 -0.1801
    1DIPC   D2A 6498   0.611  28.129   5.196 -0.0235 -0.1128  0.0544
    1DIPC   D3A 6499   0.991  28.403   4.959 -0.0088 -0.2044  0.1178
    1DIPC   C4A 6500   1.306  28.330   5.296  0.4814 -0.1659 -0.1734
    1DIPC   C1B 6501   1.476  28.314   5.814 -0.0534  0.1260  0.1072
    1DIPC   D2B 6502   1.688  28.659   5.661  0.2817 -0.0387 -0.0265
    1DIPC   D3B 6503   1.822  28.671   5.222 -0.1043 -0.0347 -0.1750
    1DIPC   C4B 6504   2.248  28.652   5.056  0.0476 -0.2602  0.0038
    1DIPC   NC3 6505   6.786  21.052   5.851  0.0982 -0.0433 -0.1796
    1DIPC   PO4 6506   6.556  21.273   5.530  0.0835  0.0198 -0.1811
    1DIPC   GL1 6507   6.559  21.170   5.055  0.1592 -0.0833  0.0045
    1DIPC   GL2 6508   6.387  21.375   4.860  0.2917 -0.1101  0.0019
    1DIPC   C1A 6509   6.592  21.038   4.603 -0.2103 -0.0939 -0.0847
    1DIPC   D2A 6510   6.520  21.075   4.169  0.0151  0.0002 -0.2127
    1DIPC   D3A 6511   6.773  20.737   3.936  0.0388 -0.1319 -0.0577
    1DIPC   C4A 6512   6.711  20.596   3.689 -0.0840  0.1855  0.0194
    1DIPC   C1B 6513   6.481  21.674   4.488  0.3156 -0.0055 -0.1244
    1DIPC   D2B 6514   6.619  21.668   4.157  0.0034  0.0359 -0.3058
    1DIPC   D3B 6515   6.932  21.376   3.852 -0.0574 -0.1878 -0.0153
    1DIPC   C4B 6516   6.619  21.268   3.499  0.0340  0.1958 -0.1639
    1DIPC   NC3 6517  24.284  19.870   7.350  0.2637  0.0576 -0.0955
    1DIPC   PO4 6518  24.547  19.853   6.940 -0.1160  0.0740 -0.1336
    1DIPC   GL1 6519  24.322  20.106   6.554  0.0526  0.0435  0.0925
    1DIPC   GL2 6520  24.461  19.907   6.245 -0.0261 -0.1278 -0.1315
    1DIPC   C1A 6521  24.114  20.225   6.152  0.1210  0.0963  0.3066
    1DIPC   D2A 6522  23.908  20.291   5.793  0.0220 -0.3115  0.0138
    1DIPC   D3A 6523  23.981  20.737   5.926 -0.0832 -0.1105 -0.1789
    1DIPC   C4A 6524  23.802  21.109   5.692  0.2011  0.2461 -0.1196
    1DIPC   C1B 6525  24.348  20.008   5.772  0.1440  0.1011 -0.3346
    1DIPC   D2B 6526  24.049  20.111   5.360  0.0196 -0.0325 -0.0739
    1DIPC   D3B 6527  24.048  20.191   4.952 -0.0188 -0.2005  0.0020
    1DIPC   C4B 6528  24.110  19.877   4.634 -0.2320  0.1399  0.2088
    1DIPC   NC3 6529   7.579  19.167   6.164  0.0779  0.0754 -0.4349
    1DIPC   PO4 6530   7.311  19.547   5.913 -0.4454  0.0756 -0.1702
    1DIPC   GL1 6531   7.495  19.340   5.498  0.1428  0.1692 -0.0712
    1DIPC   GL2 6532   7.608  19.519   5.250  0.0057  0.0045 -0.0868
    1DIPC   C1A 6533   7.732  18.993   5.552  0.0841  0.1023  0.2129
    1DIPC   D2A 6534   8.151  18.809   5.440  0.1051  0.1315  0.1227
    1DIPC   D3A 6535   8.373  18.648   5.783  0.0601  0.0677  0.2393
    1DIPC   C4A 6536   8.764  18.618   5.963 -0.0953  0.1295 -0.0488
    1DIPC   C1B 6537   7.812  19.209   4.962 -0.3719 -0.0278  0.1312
    1DIPC   D2B 6538   7.986  18.773   4.906 -0.0918  0.2959 -0.0899
    1DIPC   D3B 6539   8.341  19.000   4.694 -0.0885  0.1755 -0.0888
    1DIPC   C4B 6540   8.429  19.513   4.804  0.2640  0.0429 -0.1321
    1DIPC   NC3 6541   1.571   0.937   7.051 -0.1701 -0.2562 -0.0663
    1DIPC   PO4 6542   1.444   1.251   6.680 -0.1804  0.1412 -0.2034
    1DIPC   GL1 6543   1.368   1.424   6.246  0.0688  0.1519  0.3186
    1DIPC   GL2 6544   1.375   1.748   6.140 -0.1315 -0.0514  0.2381
    1DIPC   C1A 6545   1.360   1.112   5.983  0.0073 -0.0194 -0.2117
    1DIPC   D2A 6546   1.136   0.968   5.529 -0.1230 -0.0154  0.2163
    1DIPC   D3A 6547   0.838   1.082   5.325 -0.4233 -0.0339 -0.0221
    1DIPC   C4A 6548   0.733   1.500   5.366 -0.0398  0.1326  0.1393
    1DIPC   C1B 6549   1.472   1.879   5.666 -0.1653 -0.5788  0.2341
    1DIPC   D2B 6550   1.692   1.700   5.200  0.0305  0.3461  0.0993
    1DIPC   D3B 6551   1.263   1.977   5.138  0.0748 -0.1705  0.1787
    1DIPC   C4B 6552   1.054   1.906   5.398  0.0404  0.0138 -0.0310
    1DIPC   NC3 6553  14.611   7.998   6.994 -0.1889 -0.4382 -0.0730
    1DIPC   PO4 6554  14.464   7.605   7.038  0.0383  0.3290  0.2110
    1DIPC   GL1 6555  14.752   7.579   6.627 -0.1403 -0.0674  0.0734
    1DIPC   GL2 6556  14.739   7.944   6.521 -0.0011  0.0171  0.0823
    1DIPC   C1A 6557  14.909   7.362   6.284 -0.0453  0.5736 -0.3539
    1DIPC   D2A 6558  15.251   7.184   5.933 -0.2274 -0.2567  0.2240
    1DIPC   D3A 6559  15.344   7.685   6.006  0.2212 -0.3611 -0.3467
    1DIPC   C4A 6560  15.104   7.963   5.747  0.0721  0.3164 -0.4276
    1DIPC   C1B 6561  14.792   7.808   6.120  0.1540 -0.0585 -0.0947
    1DIPC   D2B 6562  14.887   7.534   5.788 -0.2004  0.0883 -0.1800
    1DIPC   D3B 6563  14.422   7.434   5.875 -0.1476 -0.2833 -0.1822
    1DIPC   C4B 6564  14.426   7.448   6.263  0.1296  0.0425  0.0118
    1DIPC   NC3 6565  28.607  16.047   6.460  0.0270 -0.1330  0.1901
    1DIPC   PO4 6566  28.919  16.228   6.126  0.0833 -0.0599  0.0554
    1DIPC   GL1 6567  28.707  16.168   5.731  0.1139 -0.1003  0.1186
    1DIPC   GL2 6568  28.532  16.486   5.564 -0.0814 -0.0881  0.0625
    1DIPC   C1A 6569  28.616  16.074   5.305  0.1449 -0.1647 -0.1020
    1DIPC   D2A 6570  28.732  16.215   4.848  0.1376  0.0921  0.0678
    1DIPC   D3A 6571  28.544  16.626   5.069 -0.0071 -0.0258  0.3715
    1DIPC   C4A 6572  28.180  16.381   5.186 -0.0450  0.1519 -0.1189
    1DIPC   C1B 6573  28.961  16.454   5.346  0.0972  0.0170  0.1740
    1DIPC   D2B 6574  29.138  16.720   4.954 -0.1782 -0.1536 -0.1835
    1DIPC   D3B 6575  28.778  16.732   4.643 -0.0285 -0.0521 -0.3087
    1DIPC   C4B 6576  28.487  16.994   4.483 -0.0918  0.1237 -0.0187
    1DIPC   NC3 6577  25.316  27.809   6.881 -0.2794 -0.1919 -0.1952
    1DIPC   PO4 6578  25.482  28.292   6.614 -0.2117 -0.0362  0.1109
    1DIPC   GL1 6579  25.727  28.093   6.264 -0.0478 -0.0627  0.2293
    1DIPC   GL2 6580  25.619  27.850   6.181 -0.1241 -0.0331 -0.1776
    1DIPC   C1A 6581  26.107  28.148   6.013  0.0775 -0.1400  0.1132
    1DIPC   D2A 6582  26.542  28.163   6.168  0.0298 -0.3430  0.2894
    1DIPC   D3A 6583  26.829  28.279   5.765  0.1363  0.1376 -0.2650
    1DIPC   C4A 6584  26.694  28.587   5.387 -0.3172 -0.2737  0.2453
    1DIPC   C1B 6585  25.509  28.027   5.815 -0.0938  0.2345 -0.2454
    1DIPC   D2B 6586  25.143  28.165   5.648  0.1120  0.1132 -0.0027
    1DIPC   D3B 6587  25.509  28.210   5.342  0.0299 -0.0156 -0.1554
    1DIPC   C4B 6588  25.566  28.600   5.311  0.0632 -0.2648  0.2025
    1DIPC   NC3 6589   6.007  24.143   6.176 -0.0953 -0.2722  0.0452
    1DIPC   PO4 6590   5.956  23.699   6.039  0.2765 -0.1219 -0.1255
    1DIPC   GL1 6591   5.938  23.910   5.738  0.0310 -0.2844 -0.2121
    1DIPC   GL2 6592   5.633  23.805   5.573  0.3929  0.2497 -0.1152
    1DIPC   C1A 6593   6.076  23.891   5.305  0.0512 -0.2896 -0.0712
    1DIPC   D2A 6594   5.974  24.171   5.071  0.1289  0.2201 -0.0111
    1DIPC   D3A 6595   5.866  24.241   4.527 -0.1167 -0.0902  0.0123
    1DIPC   C4A 6596   5.669  23.944   4.144 -0.0839 -0.0492 -0.2022
    1DIPC   C1B 6597   5.572  23.854   5.166  0.1030  0.0464 -0.4233
    1DIPC   D2B 6598   5.612  23.825   4.668 -0.0458 -0.0916 -0.0180
    1DIPC   D3B 6599   5.167  23.640   4.683 -0.0382  0.0354  0.1965
    1DIPC   C4B 6600   5.050  23.218   4.538  0.2487 -0.0799 -0.0454
    1DIPC   NC3 6601  11.994   1.172   7.192 -0.2197 -0.2159  0.5088
    1DIPC   PO4 6602  11.755   0.787   7.204 -0.0546  0.0307 -0.2555
    1DIPC   GL1 6603  11.760   0.816   6.835  0.0619 -0.1660 -0.0110
    1DIPC   GL2 6604  11.576   0.665   6.667 -0.3695  0.0241 -0.4418
    1DIPC   C1A 6605  12.026   0.838   6.442  0.1343 -0.1290 -0.0522
    1DIPC   D2A 6606  12.124   0.838   6.004 -0.1377 -0.0485 -0.0652
    1DIPC   D3A 6607  11.845   0.670   5.791  0.1774  0.0069  0.0427
    1DIPC   C4A 6608  11.643   0.313   5.858 -0.0205  0.2039  0.0314
    1DIPC   C1B 6609  11.593   0.604   6.299  0.0506 -0.1517  0.0759
    1DIPC   D2B 6610  11.332   0.723   5.967 -0.0275 -0.0226 -0.2290
    1DIPC   D3B 6611  11.411   0.618   5.537  0.1371 -0.2279  0.1120
    1DIPC   C4B 6612  11.337   0.873   5.159  0.0536 -0.0322  0.0537
    1DIPC   NC3 6613  26.304  19.405   6.388 -0.3198  0.0664  0.0173
    1DIPC   PO4 6614  25.918  19.547   6.253  0.1878  0.0804 -0.4847
    1DIPC   GL1 6615  26.015  19.377   5.852 -0.1582  0.2673 -0.2834
    1DIPC   GL2 6616  26.365  19.348   5.819 -0.1373  0.0032  0.4201
    1DIPC   C1A 6617  26.099  19.392   5.383  0.1191  0.1930 -0.1362
    1DIPC   D2A 6618  26.419  19.499   5.040 -0.1762 -0.1641  0.2644
    1DIPC   D3A 6619  26.671  19.503   5.361 -0.0936  0.0086 -0.0267
    1DIPC   C4A 6620  26.762  19.909   5.651 -0.0955 -0.0250 -0.0327
    1DIPC   C1B 6621  26.314  19.743   5.634 -0.0755 -0.3443  0.0609
    1DIPC   D2B 6622  26.475  19.948   5.267  0.0116  0.1427  0.0035
    1DIPC   D3B 6623  26.122  20.277   5.233 -0.2714  0.2318 -0.0367
    1DIPC   C4B 6624  26.075  20.745   4.959  0.2370 -0.0931  0.5742
    1DIPC   NC3 6625   8.653   4.708   7.022  0.0451 -0.1901 -0.0353
    1DIPC   PO4 6626   8.442   5.077   7.112  0.2623  0.1766  0.1659
    1DIPC   GL1 6627   8.553   5.030   6.618  0.2438 -0.1387 -0.2568
    1DIPC   GL2 6628   8.608   4.714   6.467 -0.0980  0.0267 -0.0064
    1DIPC   C1A 6629   8.840   5.246   6.381 -0.1824 -0.1009  0.1089
    1DIPC   D2A 6630   9.254   5.418   6.352  0.1183 -0.0351  0.0285
    1DIPC   D3A 6631   8.957   5.367   5.934  0.2103  0.0930  0.2004
    1DIPC   C4A 6632   9.187   5.537   5.552  0.0342  0.1362 -0.0411
    1DIPC   C1B 6633   8.400   4.390   6.157  0.0175 -0.1724  0.3208
    1DIPC   D2B 6634   8.358   4.124   5.833  0.0751 -0.0823 -0.0930
    1DIPC   D3B 6635   8.324   3.748   5.523 -0.1952  0.0213  0.3630
    1DIPC   C4B 6636   8.042   3.451   5.614  0.2768 -0.2355  0.0028
    1DIPC   NC3 6637  11.969  24.774   6.264  0.1068  0.1406  0.0778
    1DIPC   PO4 6638  12.180  24.463   6.292 -0.1039 -0.0447 -0.2995
    1DIPC   GL1 6639  12.015  24.480   5.853  0.2708  0.0871  0.0241
    1DIPC   GL2 6640  12.154  24.769   5.760 -0.2069  0.1007  0.0831
    1DIPC   C1A 6641  11.830  24.679   5.487 -0.0672 -0.0344  0.0303
    1DIPC   D2A 6642  11.770  25.032   5.293  0.3420  0.2832 -0.0088
    1DIPC   D3A 6643  11.877  24.844   4.943 -0.3454  0.0755  0.0461
    1DIPC   C4A 6644  11.778  24.462   4.892 -0.1556 -0.0818  0.2417
    1DIPC   C1B 6645  12.302  24.607   5.246 -0.0528  0.0594  0.3461
    1DIPC   D2B 6646  12.239  24.441   4.791 -0.0800  0.2498  0.2451
    1DIPC   D3B 6647  12.470  24.134   4.486  0.1439 -0.1298 -0.3193
    1DIPC   C4B 6648  12.467  23.621   4.311  0.2330  0.2254 -0.0791
    1DIPC   NC3 6649  22.847   0.146   6.674  0.0849  0.0054  0.2607
    1DIPC   PO4 6650  23.384   0.233   6.960 -0.0291  0.0794 -0.0040
    1DIPC   GL1 6651  23.552   0.253   6.572  0.1120  0.2223  0.0539
    1DIPC   GL2 6652  23.297   0.074   6.447 -0.2123  0.0300  0.4730
    1DIPC   C1A 6653  23.436   0.428   6.155 -0.0610 -0.2379  0.0600
    1DIPC   D2A 6654  23.611   0.772   5.862 -0.1655  0.0892  0.1482
    1DIPC   D3A 6655  23.684   1.216   5.851 -0.1202 -0.1159  0.1977
    1DIPC   C4A 6656  23.800   1.507   5.648 -0.1731  0.0705 -0.1969
    1DIPC   C1B 6657  23.595  -0.187   6.119  0.1335 -0.3188  0.1798
    1DIPC   D2B 6658  23.909  -0.496   5.969  0.0035  0.0097  0.2571
    1DIPC   D3B 6659  23.646  -0.279   5.652  0.0702  0.1093  0.0906
    1DIPC   C4B 6660  23.312  -0.253   5.318  0.3138  0.0467 -0.4804
    1DIPC   NC3 6661   7.002  21.809   6.163  0.1545 -0.1063  0.1241
    1DIPC   PO4 6662   7.059  22.025   5.792 -0.1360 -0.3180 -0.1059
    1DIPC   GL1 6663   7.154  21.839   5.471  0.2276 -0.0022  0.0234
    1DIPC   GL2 6664   7.370  21.545   5.411  0.2029 -0.0436 -0.2304
    1DIPC   C1A 6665   7.191  21.877   5.030 -0.2759 -0.2112 -0.1844
    1DIPC   D2A 6666   7.307  21.981   4.557  0.0834 -0.1293 -0.1889
    1DIPC   D3A 6667   6.893  21.963   4.535 -0.2854 -0.2044  0.1559
    1DIPC   C4A 6668   6.504  22.122   4.257  0.0569  0.0246 -0.0122
    1DIPC   C1B 6669   7.387  21.164   5.082 -0.3099  0.0155 -0.0988
    1DIPC   D2B 6670   7.566  21.025   4.712 -0.0990  0.0637 -0.0348
    1DIPC   D3B 6671   7.392  21.075   4.383 -0.1026  0.0548  0.0487
    1DIPC   C4B 6672   7.685  20.913   4.020  0.3403  0.1293 -0.0082
    1DIPC   NC3 6673  16.596  28.467   7.373 -0.1795 -0.2699  0.0482
    1DIPC   PO4 6674  16.588  28.523   6.979 -0.1187 -0.1691 -0.1277
    1DIPC   GL1 6675  16.556  28.423   6.536  0.0528 -0.1308  0.0085
    1DIPC   GL2 6676  16.845  28.292   6.348  0.1932  0.2559  0.3462
    1DIPC   C1A 6677  16.461  28.511   6.115  0.3317  0.0166 -0.0256
    1DIPC   D2A 6678  16.660  28.784   5.775  0.2726 -0.1100  0.1531
    1DIPC   D3A 6679  16.421  29.117   5.523 -0.2923 -0.3500  0.0264
    1DIPC   C4A 6680  16.007  28.853   5.377  0.0731 -0.2474 -0.0629
    1DIPC   C1B 6681  16.873  28.311   5.887  0.0858 -0.0206  0.0475
    1DIPC   D2B 6682  16.972  28.513   5.479  0.1265  0.0498 -0.1195
    1DIPC   D3B 6683  16.536  28.480   5.365  0.3495 -0.0982 -0.2234
    1DIPC   C4B 6684  16.409  28.804   5.086  0.0072  0.1735 -0.1057
    1DIPC   NC3 6685  27.641  27.003   6.387 -0.4072 -0.0485 -0.0376
    1DIPC   PO4 6686  27.701  26.567   6.389  0.1985 -0.5695  0.0082
    1DIPC   GL1 6687  27.509  26.544   5.943 -0.0935  0.1070  0.2803
    1DIPC   GL2 6688  27.634  26.837   5.909 -0.1950  0.0646  0.0100
    1DIPC   C1A 6689  27.360  26.588   5.544 -0.0742  0.2294 -0.0173
    1DIPC   D2A 6690  27.307  26.840   5.268 -0.0380  0.1275 -0.0009
    1DIPC   D3A 6691  27.336  26.749   4.807 -0.2070 -0.0793 -0.1207
    1DIPC   C4A 6692  27.631  27.011   4.567 -0.2495 -0.2893 -0.0692
    1DIPC   C1B 6693  27.377  27.265   5.759 -0.1626 -0.0517  0.1001
    1DIPC   D2B 6694  27.096  27.345   5.487  0.0490 -0.0658  0.1313
    1DIPC   D3B 6695  27.103  27.287   5.079 -0.3330 -0.1649  0.1368
    1DIPC   C4B 6696  26.856  27.519   4.696 -0.2219 -0.2253  0.1258
    1DIPC   NC3 6697   1.044  22.971   5.640 -0.0300 -0.0829 -0.2013
    1DIPC   PO4 6698   1.055  23.343   5.632 -0.3080 -0.0883  0.0054
    1DIPC   GL1 6699   0.959  23.317   5.218 -0.3601  0.1020  0.1235
    1DIPC   GL2 6700   1.069  23.381   4.939  0.2981 -0.0512  0.0656
    1DIPC   C1A 6701   0.400  23.412   5.125 -0.1927  0.1410  0.0864
    1DIPC   D2A 6702   0.036  23.258   4.909 -0.0957 -0.1540  0.1295
    1DIPC   D3A 6703  -0.290  23.165   5.260  0.0330 -0.1240 -0.0076
    1DIPC   C4A 6704  -0.642  22.816   5.154 -0.1657  0.1574  0.0578
    1DIPC   C1B 6705   1.217  23.270   4.558 -0.0870  0.0602  0.2211
    1DIPC   D2B 6706   1.529  23.160   4.371 -0.3058 -0.2176  0.1422
    1DIPC   D3B 6707   1.634  22.788   4.060 -0.0944 -0.1894 -0.1415
    1DIPC   C4B 6708   1.518  22.429   4.075 -0.1554  0.0226  0.0856
    1DIPC   NC3 6709  24.050  12.475   6.537  0.3050 -0.3059  0.0397
    1DIPC   PO4 6710  24.187  12.853   6.338  0.1784  0.1266 -0.1995
    1DIPC   GL1 6711  24.330  12.854   5.857 -0.2384  0.1204 -0.2510
    1DIPC   GL2 6712  24.130  13.137   5.719  0.2463 -0.3013 -0.0545
    1DIPC   C1A 6713  24.393  12.841   5.411 -0.3378  0.0787 -0.3951
    1DIPC   D2A 6714  24.244  12.635   5.046  0.0875 -0.0964 -0.1025
    1DIPC   D3A 6715  24.038  13.013   5.073  0.1505  0.2318 -0.0209
    1DIPC   C4A 6716  24.223  13.295   4.703 -0.1334 -0.0726  0.0069
    1DIPC   C1B 6717  23.822  12.873   5.469  0.1217 -0.5521 -0.1703
    1DIPC   D2B 6718  23.730  12.523   5.191  0.3350  0.1270  0.1526
    1DIPC   D3B 6719  23.580  12.865   5.019  0.1080 -0.1355  0.1410
    1DIPC   C4B 6720  23.749  13.036   4.659  0.0128 -0.0968 -0.1097
    1DIPC   NC3 6721  14.490  29.526   7.145  0.0643 -0.0281  0.0041
    1DIPC   PO4 6722  14.647  29.871   6.890 -0.1023  0.2545 -0.1674
    1DIPC   GL1 6723  14.617  30.079   6.502  0.0076  0.0088  0.0233
    1DIPC   GL2 6724  14.347  30.259   6.597  0.4645  0.0549  0.2808
    1DIPC   C1A 6725  14.956  30.014   6.141 -0.1719 -0.0584 -0.1743
    1DIPC   D2A 6726  14.886  30.277   5.738  0.2416 -0.1876 -0.1122
    1DIPC   D3A 6727  15.210  30.498   5.538 -0.0042 -0.2377  0.0876
    1DIPC   C4A 6728  15.109  30.729   5.148  0.0190 -0.1123  0.1079
    1DIPC   C1B 6729  14.270  30.414   6.239  0.2616 -0.0080 -0.1071
    1DIPC   D2B 6730  14.475  30.589   5.934 -0.0268  0.0720  0.1864
    1DIPC   D3B 6731  14.263  30.747   5.550  0.2300  0.0377 -0.4578
    1DIPC   C4B 6732  13.949  30.627   5.484 -0.3341  0.1543 -0.0469
    1DIPC   NC3 6733  12.164  23.874   6.578  0.0018  0.0656 -0.2168
    1DIPC   PO4 6734  12.499  23.691   6.222 -0.2073 -0.0213  0.2995
    1DIPC   GL1 6735  12.653  23.798   5.769  0.0493  0.1961 -0.4132
    1DIPC   GL2 6736  12.909  23.650   5.653  0.2008 -0.3622  0.2060
    1DIPC   C1A 6737  12.467  23.851   5.412 -0.1300  0.1524 -0.1475
    1DIPC   D2A 6738  12.445  23.813   4.927  0.0315  0.0852 -0.2153
    1DIPC   D3A 6739  12.636  24.172   4.966  0.0323 -0.0923  0.2064
    1DIPC   C4A 6740  12.647  24.312   5.310 -0.1127 -0.0559 -0.0045
    1DIPC   C1B 6741  12.905  23.626   5.151 -0.1000  0.1402  0.0478
    1DIPC   D2B 6742  12.904  23.408   4.678 -0.0026 -0.1438  0.0498
    1DIPC   D3B 6743  12.888  23.878   4.566 -0.2789 -0.0501  0.0637
    1DIPC   C4B 6744  13.230  24.106   4.377 -0.3175 -0.3165 -0.0422
    1DIPC   NC3 6745  16.279   0.952   7.102  0.0838  0.2213 -0.1603
    1DIPC   PO4 6746  16.090   0.615   6.849  0.1172 -0.1727  0.0625
    1DIPC   GL1 6747  16.050   0.607   6.435  0.1779 -0.1780  0.0876
    1DIPC   GL2 6748  16.018   0.346   6.385  0.0703 -0.0912  0.0646
    1DIPC   C1A 6749  16.206   0.749   5.964  0.3471  0.1733  0.0332
    1DIPC   D2A 6750  16.147   0.742   5.492 -0.1505  0.0596  0.0417
    1DIPC   D3A 6751  16.317   0.965   5.320  0.3169  0.3160 -0.1092
    1DIPC   C4A 6752  16.739   0.868   5.214 -0.2339 -0.2015  0.2415
    1DIPC   C1B 6753  16.051   0.212   6.018  0.0220 -0.1770 -0.1210
    1DIPC   D2B 6754  16.113   0.174   5.612  0.0217 -0.0478  0.1607
    1DIPC   D3B 6755  16.339  -0.169   5.794  0.3320 -0.0329 -0.0839
    1DIPC   C4B 6756  16.665  -0.235   5.766 -0.0863 -0.3040  0.0790
    1DIPC   NC3 6757   3.109   0.648   7.375 -0.0040  0.1658  0.0329
    1DIPC   PO4 6758   3.105   0.355   7.015 -0.3535 -0.0306  0.0024
    1DIPC   GL1 6759   3.130   0.170   6.556  0.1078  0.0002 -0.0346
    1DIPC   GL2 6760   2.833   0.025   6.319 -0.2439  0.2244  0.1736
    1DIPC   C1A 6761   3.223   0.084   6.001  0.1577  0.0284  0.0084
    1DIPC   D2A 6762   3.182  -0.066   5.528 -0.0128  0.3352 -0.1774
    1DIPC   D3A 6763   3.509   0.022   5.270 -0.1760  0.0893  0.2296
    1DIPC   C4A 6764   3.519   0.345   4.938  0.0504 -0.2504 -0.3477
    1DIPC   C1B 6765   3.057   0.496   6.206  0.0734 -0.1026  0.1252
    1DIPC   D2B 6766   3.068   0.792   5.873  0.2387 -0.1427 -0.1680
    1DIPC   D3B 6767   2.964   0.415   5.681  0.1664  0.3097 -0.1578
    1DIPC   C4B 6768   2.763   0.241   5.882 -0.0748  0.1048  0.5662
    1DIPC   NC3 6769  22.020  12.719   6.653 -0.0805 -0.2309  0.0226
    1DIPC   PO4 6770  21.814  12.995   6.386  0.0560 -0.0346  0.0652
    1DIPC   GL1 6771  21.679  12.861   6.083 -0.2770 -0.2596 -0.3530
    1DIPC   GL2 6772  21.553  13.018   5.808 -0.1856 -0.1816 -0.2267
    1DIPC   C1A 6773  21.601  12.478   5.751 -0.0479 -0.3468 -0.0037
    1DIPC   D2A 6774  21.578  12.411   5.216 -0.0499  0.0857  0.3154
    1DIPC   D3A 6775  21.611  12.775   5.043 -0.3561 -0.3423  0.1189
    1DIPC   C4A 6776  21.519  12.745   4.565  0.0164  0.1474  0.0329
    1DIPC   C1B 6777  21.591  13.040   5.416 -0.2136  0.0551 -0.4265
    1DIPC   D2B 6778  21.437  13.262   5.098  0.2603  0.1163  0.0217
    1DIPC   D3B 6779  21.482  13.244   4.663  0.1888  0.2805 -0.1031
    1DIPC   C4B 6780  21.629  13.166   4.296  0.1656  0.1493  0.0015
    1DIPC   NC3 6781   0.582   1.777   6.384  0.0036 -0.0768 -0.2227
    1DIPC   PO4 6782   0.179   2.045   6.348 -0.0956 -0.1147 -0.1634
    1DIPC   GL1 6783   0.064   1.714   6.065 -0.0595  0.0470 -0.1086
    1DIPC   GL2 6784   0.361   1.608   5.875 -0.1040 -0.0573 -0.2712
    1DIPC   C1A 6785  -0.090   1.505   5.688 -0.1000 -0.1628  0.0185
    1DIPC   D2A 6786  -0.423   1.325   5.499 -0.3548 -0.1453 -0.2094
    1DIPC   D3A 6787  -0.137   1.082   5.214  0.1283  0.2392 -0.0227
    1DIPC   C4A 6788   0.340   0.965   5.126  0.1246 -0.0081  0.0382
    1DIPC   C1B 6789   0.762   1.811   5.764  0.0425 -0.3529 -0.1306
    1DIPC   D2B 6790   0.638   2.180   5.576 -0.0702 -0.2473 -0.0238
    1DIPC   D3B 6791   0.553   2.011   5.216  0.0781  0.2065  0.0309
    1DIPC   C4B 6792   0.810   2.211   4.847 -0.3335 -0.1202 -0.2626
    1DIPC   NC3 6793  17.766  26.852   7.210  0.1962 -0.1335 -0.2823
    1DIPC   PO4 6794  18.018  26.843   6.819 -0.1082 -0.2219  0.1066
    1DIPC   GL1 6795  18.008  26.650   6.414  0.1406  0.1621 -0.0469
    1DIPC   GL2 6796  18.316  26.415   6.346 -0.0993 -0.1564  0.0261
    1DIPC   C1A 6797  17.865  26.609   6.034 -0.3015 -0.1005 -0.0717
    1DIPC   D2A 6798  17.790  26.370   5.669  0.0029 -0.1855 -0.2775
    1DIPC   D3A 6799  18.140  26.256   5.343 -0.0738 -0.0681 -0.2006
    1DIPC   C4A 6800  18.412  26.464   5.070  0.2622  0.2459 -0.0831
    1DIPC   C1B 6801  18.294  26.576   5.800  0.1310  0.3658  0.0755
    1DIPC   D2B 6802  18.266  26.799   5.436  0.1147 -0.1168 -0.1494
    1DIPC   D3B 6803  18.581  27.155   5.485  0.0421  0.1173 -0.0031
    1DIPC   C4B 6804  19.069  26.923   5.625  0.2854 -0.0920 -0.0042
    1DIPC   NC3 6805  19.107   1.590   6.881  0.1719  0.3790 -0.0978
    1DIPC   PO4 6806  18.734   1.463   6.930 -0.2645 -0.1829 -0.0212
    1DIPC   GL1 6807  18.424   1.413   6.648  0.0664 -0.1089  0.0653
    1DIPC   GL2 6808  18.627   1.659   6.437  0.1597  0.0976  0.1550
    1DIPC   C1A 6809  18.532   1.190   6.241  0.0412  0.1402  0.3947
    1DIPC   D2A 6810  18.881   0.947   5.896 -0.0322 -0.1918 -0.2840
    1DIPC   D3A 6811  18.558   0.949   5.492 -0.2351 -0.2432  0.1567
    1DIPC   C4A 6812  18.623   0.585   5.204  0.3712  0.0428 -0.0127
    1DIPC   C1B 6813  18.774   1.511   6.009  0.1288  0.0094  0.0648
    1DIPC   D2B 6814  18.813   1.387   5.512 -0.0132  0.0353  0.0845
    1DIPC   D3B 6815  18.850   1.484   5.084 -0.1051 -0.2581  0.1947
    1DIPC   C4B 6816  19.040   1.663   4.817 -0.1815 -0.0558 -0.0296
    1DIPC   NC3 6817  21.626   0.324   6.997 -0.0841 -0.0124 -0.2267
    1DIPC   PO4 6818  21.490   0.728   6.862  0.0432 -0.2685 -0.2354
    1DIPC   GL1 6819  21.877   0.739   6.624 -0.0035  0.2880 -0.0313
    1DIPC   GL2 6820  21.927   0.378   6.589  0.1472  0.2093  0.0407
    1DIPC   C1A 6821  22.292   0.614   6.298  0.1558  0.2150 -0.0626
    1DIPC   D2A 6822  22.573   0.525   5.956  0.0500 -0.1047  0.2405
    1DIPC   D3A 6823  22.524   0.068   5.729 -0.1525 -0.0204 -0.0185
    1DIPC   C4A 6824  22.801  -0.087   5.533 -0.3158 -0.1429  0.0591
    1DIPC   C1B 6825  21.839   0.530   6.122 -0.1619  0.0054  0.2749
    1DIPC   D2B 6826  21.690   0.549   5.568  0.0421  0.4551  0.3840
    1DIPC   D3B 6827  21.940   0.666   5.279 -0.0447  0.2097  0.0077
    1DIPC   C4B 6828  22.089   0.494   4.963  0.0507 -0.4217  0.3894
    1DIPC   NC3 6829   0.583   8.462   6.145  0.1011 -0.2378  0.0036
    1DIPC   PO4 6830   0.181   8.269   5.999 -0.0703  0.3898  0.0021
    1DIPC   GL1 6831   0.006   8.280   5.604 -0.1368 -0.1618 -0.0442
    1DIPC   GL2 6832  -0.231   8.081   5.442 -0.0870  0.0004  0.3329
    1DIPC   C1A 6833   0.032   8.537   5.255  0.1782  0.0127  0.2367
    1DIPC   D2A 6834   0.146   8.960   5.095 -0.2873 -0.2105  0.0840
    1DIPC   D3A 6835   0.113   8.979   4.682 -0.0139  0.1404  0.2158
    1DIPC   C4A 6836  -0.160   9.133   4.482  0.1381  0.1119 -0.1763
    1DIPC   C1B 6837  -0.480   8.075   4.998  0.0039  0.1454  0.3679
    1DIPC   D2B 6838  -0.528   8.287   4.635 -0.1771 -0.1205 -0.3342
    1DIPC   D3B 6839  -0.478   8.766   4.495  0.0736 -0.1204 -0.1393
    1DIPC   C4B 6840  -0.573   9.013   4.770 -0.2306 -0.0107  0.1551
    1DIPC   NC3 6841  24.334   1.120   7.174  0.0834  0.1933 -0.0493
    1DIPC   PO4 6842  24.294   0.735   6.921  0.0504  0.0501 -0.0797
    1DIPC   GL1 6843  24.050   0.723   6.533 -0.0753 -0.2041  0.1134
    1DIPC   GL2 6844  23.736   0.689   6.410  0.1197  0.2342  0.0721
    1DIPC   C1A 6845  24.107   0.831   6.070  0.2173  0.0088  0.2097
    1DIPC   D2A 6846  24.100   0.641   5.685  0.0739 -0.5411  0.0671
    1DIPC   D3A 6847  24.047   1.064   5.495  0.0007 -0.1164  0.2375
    1DIPC   C4A 6848  23.773   1.157   5.284  0.0184  0.0803 -0.0872
    1DIPC   C1B 6849  23.828   1.135   6.328 -0.0977 -0.2814 -0.0393
    1DIPC   D2B 6850  23.851   1.500   6.508  0.1029  0.0554  0.0495
    1DIPC   D3B 6851  24.023   1.596   6.166  0.1132  0.0721 -0.2622
    1DIPC   C4B 6852  24.212   1.317   6.024 -0.0549 -0.1087 -0.4115
    1DIPC   NC3 6853   4.631  19.751   6.310  0.1167 -0.0126 -0.3033
    1DIPC   PO4 6854   4.985  19.671   6.037 -0.0090 -0.1601  0.0809
    1DIPC   GL1 6855   4.823  19.574   5.557 -0.0060  0.0574 -0.1092
    1DIPC   GL2 6856   4.927  19.396   5.305  0.0308 -0.2777 -0.2411
    1DIPC   C1A 6857   4.683  19.844   5.200 -0.0421  0.3058 -0.0493
    1DIPC   D2A 6858   4.332  19.986   4.908  0.2299 -0.2342  0.2399
    1DIPC   D3A 6859   4.270  20.422   4.648  0.1313  0.0285  0.1899
    1DIPC   C4A 6860   4.417  20.482   4.226  0.0761  0.2255 -0.1601
    1DIPC   C1B 6861   4.625  19.412   4.941  0.2965 -0.0653  0.0283
    1DIPC   D2B 6862   4.620  19.569   4.617 -0.0427 -0.1342 -0.1573
    1DIPC   D3B 6863   4.240  19.693   4.406 -0.0390 -0.2834  0.0018
    1DIPC   C4B 6864   4.027  20.093   4.254 -0.2484 -0.0881  0.0421
    1DIPC   NC3 6865   9.405   7.793   7.311  0.0016 -0.0274  0.2027
    1DIPC   PO4 6866   9.367   7.341   7.329  0.1209  0.1676  0.2242
    1DIPC   GL1 6867   9.208   7.437   6.871 -0.0798 -0.2049 -0.0157
    1DIPC   GL2 6868   9.003   7.686   6.865  0.1594  0.0297  0.0059
    1DIPC   C1A 6869   9.257   7.553   6.355 -0.0225  0.1186 -0.4133
    1DIPC   D2A 6870   9.490   7.644   5.904 -0.2170 -0.1284 -0.2096
    1DIPC   D3A 6871   9.230   7.723   5.697 -0.0124  0.1885 -0.3966
    1DIPC   C4A 6872   9.298   8.172   5.542 -0.0850  0.2637 -0.0192
    1DIPC   C1B 6873   9.085   8.010   6.533  0.1348  0.2188 -0.0389
    1DIPC   D2B 6874   9.086   8.392   6.315  0.0424 -0.5700  0.0603
    1DIPC   D3B 6875   9.393   8.243   6.192  0.3804 -0.0577 -0.0982
    1DIPC   C4B 6876   9.596   7.982   6.376  0.1450  0.3010  0.1629
    1DIPC   NC3 6877  22.220  26.502   6.691 -0.3095  0.1283  0.4163
    1DIPC   PO4 6878  22.655  26.416   6.935 -0.0145 -0.0416  0.4620
    1DIPC   GL1 6879  22.637  26.409   6.459 -0.0414 -0.2769 -0.0586
    1DIPC   GL2 6880  22.953  26.317   6.290 -0.2489  0.1809 -0.1682
    1DIPC   C1A 6881  22.623  26.390   5.933 -0.1787 -0.2222 -0.1587
    1DIPC   D2A 6882  22.905  26.070   5.695  0.1874 -0.0651  0.0189
    1DIPC   D3A 6883  23.198  25.923   5.336  0.1674 -0.4158 -0.3518
    1DIPC   C4A 6884  23.266  26.142   5.070 -0.1802 -0.3075 -0.6031
    1DIPC   C1B 6885  23.215  25.997   6.080  0.2547  0.1272  0.2647
    1DIPC   D2B 6886  23.538  25.638   5.769 -0.1728  0.0043 -0.0654
    1DIPC   D3B 6887  23.607  26.050   5.569  0.1274 -0.2544  0.1173
    1DIPC   C4B 6888  23.446  26.424   5.479  0.1270 -0.0348 -0.0588
    1DIPC   NC3 6889  13.207   9.716   7.111 -0.3147  0.1376  0.1360
    1DIPC   PO4 6890  12.800   9.720   7.061 -0.1231  0.2551  0.0598
    1DIPC   GL1 6891  13.074   9.512   6.719 -0.0155 -0.0899 -0.0498
    1DIPC   GL2 6892  12.959   9.774   6.536  0.2812 -0.0503  0.3060
    1DIPC   C1A 6893  13.312   9.264   6.420  0.1109 -0.2176  0.0712
    1DIPC   D2A 6894  13.291   8.888   6.216  0.1658  0.0575  0.1429
    1DIPC   D3A 6895  13.192   8.725   5.898  0.2998  0.0779 -0.1373
    1DIPC   C4A 6896  13.375   8.707   5.528 -0.0432 -0.0256 -0.1388
    1DIPC   C1B 6897  12.661   9.856   6.252  0.0951 -0.0554  0.1308
    1DIPC   D2B 6898  12.720   9.745   5.743 -0.0636 -0.1332 -0.0802
    1DIPC   D3B 6899  12.541   9.997   5.420 -0.0477  0.2140 -0.2925
    1DIPC   C4B 6900  12.578  10.411   5.272 -0.0374 -0.0213 -0.0351
    1DIPC   NC3 6901  21.668   5.355   6.444  0.2517  0.0695 -0.0456
    1DIPC   PO4 6902  21.689   4.906   6.413  0.2269 -0.2445 -0.0778
    1DIPC   GL1 6903  21.565   4.988   6.014  0.0172  0.0207  0.1031
    1DIPC   GL2 6904  21.872   5.005   5.936  0.0175 -0.0342  0.1761
    1DIPC   C1A 6905  21.332   4.965   5.602  0.4222  0.0996  0.1924
    1DIPC   D2A 6906  21.432   4.964   5.192  0.0091 -0.0576 -0.1109
    1DIPC   D3A 6907  21.275   4.991   4.772 -0.4193  0.0050 -0.1250
    1DIPC   C4A 6908  21.214   4.646   4.633 -0.1163  0.0180 -0.0428
    1DIPC   C1B 6909  22.193   5.036   5.668 -0.1397 -0.3805  0.0603
    1DIPC   D2B 6910  22.241   5.246   5.293 -0.1434 -0.1398 -0.0739
    1DIPC   D3B 6911  22.204   4.906   5.062  0.0842 -0.2082  0.3096
    1DIPC   C4B 6912  22.310   4.547   5.254  0.0145 -0.0299  0.1601
    1DIPC   NC3 6913  18.587  27.915   6.962  0.1729 -0.1150 -0.1369
    1DIPC   PO4 6914  18.431  28.167   6.702  0.4145 -0.0430  0.0731
    1DIPC   GL1 6915  18.746  28.348   6.446  0.1390 -0.0354  0.2799
    1DIPC   GL2 6916  18.695  28.649   6.400  0.3125  0.2994  0.0920
    1DIPC   C1A 6917  18.952  28.423   6.043  0.2247 -0.4414 -0.2412
    1DIPC   D2A 6918  18.909  28.635   5.594  0.0564  0.2239 -0.0209
    1DIPC   D3A 6919  19.108  28.352   5.156  0.0845 -0.0010  0.0358
    1DIPC   C4A 6920  18.834  28.376   4.857  0.0887  0.0838  0.0003
    1DIPC   C1B 6921  18.459  28.628   6.071 -0.2308 -0.0054  0.2123
    1DIPC   D2B 6922  18.193  28.784   5.785  0.1841 -0.1726 -0.4693
    1DIPC   D3B 6923  18.187  28.336   5.773 -0.0224 -0.3075  0.1215
    1DIPC   C4B 6924  18.596  28.275   5.653 -0.0073  0.1626 -0.1610
    1DIPC   NC3 6925  24.760  25.737   6.857  0.1971 -0.1557  0.3134
    1DIPC   PO4 6926  24.585  25.869   6.424 -0.0921  0.1426 -0.1027
    1DIPC   GL1 6927  24.392  25.855   6.057 -0.1417  0.1607  0.0668
    1DIPC   GL2 6928  24.276  26.020   5.903 -0.0148 -0.3125 -0.2019
    1DIPC   C1A 6929  24.526  25.650   5.645  0.0913 -0.0224 -0.0545
    1DIPC   D2A 6930  24.675  25.751   5.183 -0.1190  0.1763 -0.1093
    1DIPC   D3A 6931  24.455  26.173   5.182 -0.0614  0.0439 -0.1697
    1DIPC   C4A 6932  24.491  26.617   4.848  0.1492 -0.1766  0.3890
    1DIPC   C1B 6933  24.115  25.948   5.489 -0.2788  0.0929 -0.3207
    1DIPC   D2B 6934  24.098  25.847   5.018 -0.0443 -0.1242  0.0398
    1DIPC   D3B 6935  23.870  25.496   4.796 -0.1452 -0.4013  0.1501
    1DIPC   C4B 6936  23.923  25.130   5.077  0.3873 -0.2516 -0.3118
    1DIPC   NC3 6937  23.226   4.672   6.790  0.0207  0.1742  0.0302
    1DIPC   PO4 6938  22.927   4.812   6.497 -0.0516  0.2724 -0.0422
    1DIPC   GL1 6939  22.681   4.832   6.136  0.0614 -0.4156 -0.1579
    1DIPC   GL2 6940  22.556   5.140   5.986 -0.1487 -0.0366 -0.0819
    1DIPC   C1A 6941  22.582   4.676   5.754  0.0866  0.0918  0.1381
    1DIPC   D2A 6942  22.897   4.605   5.386  0.1566  0.0378  0.0286
    1DIPC   D3A 6943  23.328   4.441   5.640  0.3757 -0.2164 -0.2045
    1DIPC   C4A 6944  23.589   4.174   5.517 -0.4884  0.0104 -0.7412
    1DIPC   C1B 6945  22.680   5.241   5.615 -0.1657  0.2034 -0.1286
    1DIPC   D2B 6946  22.644   5.457   5.209 -0.1342  0.0003  0.1116
    1DIPC   D3B 6947  22.733   5.407   4.794 -0.0267 -0.2290  0.0519
    1DIPC   C4B 6948  23.084   5.452   4.538 -0.0245  0.1034 -0.0926
    1DIPC   NC3 6949   7.578  26.877   6.558  0.0798  0.0120 -0.0004
    1DIPC   PO4 6950   7.794  26.551   6.514 -0.0846  0.3255  0.0658
    1DIPC   GL1 6951   7.923  26.535   6.127  0.0274 -0.5226  0.1185
    1DIPC   GL2 6952   8.177  26.600   5.997  0.2276  0.2288 -0.2000
    1DIPC   C1A 6953   7.740  26.893   5.797 -0.0379 -0.0567 -0.1406
    1DIPC   D2A 6954   7.760  27.281   5.591 -0.0120  0.1218 -0.2307
    1DIPC   D3A 6955   7.480  27.691   5.520  0.0539 -0.1911 -0.0910
    1DIPC   C4A 6956   7.059  27.648   5.685 -0.2853 -0.0900  0.1302
    1DIPC   C1B 6957   8.379  26.596   5.630 -0.2986  0.1181  0.3492
    1DIPC   D2B 6958   8.645  26.437   5.221 -0.0742  0.0990 -0.1653
    1DIPC   D3B 6959   8.425  26.742   4.996 -0.1328  0.3994  0.1043
    1DIPC   C4B 6960   8.577  26.537   4.529 -0.1637  0.0628  0.0653
    1DIPC   NC3 6961  29.389  16.141   6.132  0.0049 -0.0899  0.3037
    1DIPC   PO4 6962  29.800  16.306   5.901 -0.1657 -0.2295  0.2498
    1DIPC   GL1 6963  29.501  16.330   5.568 -0.2991 -0.0433 -0.1204
    1DIPC   GL2 6964  29.251  16.432   5.755  0.0617 -0.2727  0.3837
    1DIPC   C1A 6965  29.463  16.321   5.216 -0.0560 -0.1384  0.2328
    1DIPC   D2A 6966  29.484  16.188   4.867 -0.1110  0.2869  0.0125
    1DIPC   D3A 6967  29.460  15.713   4.830  0.1032 -0.2347  0.0512
    1DIPC   C4A 6968  29.632  15.478   4.610  0.1351  0.0198 -0.0212
    1DIPC   C1B 6969  29.336  16.795   5.414 -0.0205  0.2169  0.0760
    1DIPC   D2B 6970  29.693  17.054   5.193 -0.0519  0.2014 -0.0680
    1DIPC   D3B 6971  29.465  17.170   4.913  0.1836  0.1673  0.1343
    1DIPC   C4B 6972  29.468  16.844   4.594  0.0414 -0.0771  0.3061
    1DIPC   NC3 6973   7.850   4.694   6.904 -0.1321 -0.1094 -0.2262
    1DIPC   PO4 6974   8.192   4.699   6.768  0.1014  0.1088 -0.0544
    1DIPC   GL1 6975   8.099   4.708   6.312  0.1037  0.3493  0.0686
    1DIPC   GL2 6976   8.240   5.021   6.220  0.2279 -0.0949  0.2474
    1DIPC   C1A 6977   8.099   4.740   5.869 -0.2081  0.0840 -0.1121
    1DIPC   D2A 6978   8.194   4.549   5.565 -0.0811 -0.1644  0.2490
    1DIPC   D3A 6979   8.652   4.674   5.407  0.0556  0.2801 -0.1864
    1DIPC   C4A 6980   9.050   4.489   5.451  0.1021 -0.3041 -0.0801
    1DIPC   C1B 6981   8.404   5.149   5.901 -0.0174 -0.1386 -0.0798
    1DIPC   D2B 6982   8.238   5.119   5.544 -0.0319  0.2318  0.1636
    1DIPC   D3B 6983   8.426   5.127   5.378 -0.3449 -0.1362  0.1454
    1DIPC   C4B 6984   8.451   5.389   4.995 -0.1246 -0.0834 -0.2770
    1DIPC   NC3 6985  25.527   1.677   6.990 -0.1414 -0.1021  0.1732
    1DIPC   PO4 6986  25.579   1.595   6.623  0.1350 -0.2691  0.0615
    1DIPC   GL1 6987  25.599   1.565   6.214 -0.0618 -0.0551  0.4413
    1DIPC   GL2 6988  25.966   1.480   6.219 -0.0462 -0.0279  0.3205
    1DIPC   C1A 6989  25.540   1.377   5.704 -0.2454 -0.3361  0.0491
    1DIPC   D2A 6990  25.420   1.401   5.297 -0.0734 -0.0955 -0.1560
    1DIPC   D3A 6991  25.470   1.117   4.974 -0.0382  0.2635  0.0392
    1DIPC   C4A 6992  25.771   0.746   4.812 -0.0069  0.0041  0.0962
    1DIPC   C1B 6993  26.097   1.396   5.766  0.0704 -0.3307  0.0090
    1DIPC   D2B 6994  25.998   1.126   5.296  0.3418 -0.1522 -0.1305
    1DIPC   D3B 6995  26.227   0.735   5.094 -0.0066  0.0205 -0.0298
    1DIPC   C4B 6996  26.398   0.889   4.702  0.0386  0.1265  0.1937
    1DIPC   NC3 6997  16.670  24.486   7.097 -0.2482  0.1562  0.1375
    1DIPC   PO4 6998  16.695  24.831   6.977 -0.0349  0.4094 -0.1789
    1DIPC   GL1 6999  16.827  24.803   6.608 -0.2343 -0.2311  0.1705
    1DIPC   GL2 7000  17.109  25.001   6.443  0.1950 -0.2064 -0.2636
    1DIPC   C1A 7001  17.062  24.506   6.383 -0.5934  0.0560 -0.1882
    1DIPC   D2A 7002  17.351  24.715   6.114  0.1422 -0.2871  0.1011
    1DIPC   D3A 7003  17.157  24.771   5.666  0.1485  0.1254  0.2518
    1DIPC   C4A 7004  16.916  24.920   5.282 -0.2319  0.0176 -0.1164
    1DIPC   C1B 7005  16.732  24.936   6.096 -0.4510  0.1299 -0.0579
    1DIPC   D2B 7006  16.620  24.985   5.668  0.0642  0.1321  0.0946
    1DIPC   D3B 7007  16.302  25.195   5.563 -0.1682 -0.2996 -0.1300
    1DIPC   C4B 7008  16.449  25.547   5.350  0.1537 -0.5912  0.0977
    1DIPC   NC3 7009  25.499   3.699   6.921 -0.1130 -0.1008 -0.1007
    1DIPC   PO4 7010  25.346   3.296   6.922 -0.2742 -0.0676 -0.0742
    1DIPC   GL1 7011  25.162   3.071   6.566  0.1482  0.2840  0.0120
    1DIPC   GL2 7012  24.939   2.817   6.518 -0.1330 -0.2636  0.1326
    1DIPC   C1A 7013  24.826   3.229   6.222 -0.2449  0.1628  0.1949
    1DIPC   D2A 7014  24.542   3.435   5.846  0.0304 -0.0857  0.1219
    1DIPC   D3A 7015  24.335   3.446   5.429  0.1672  0.1988  0.0479
    1DIPC   C4A 7016  23.915   3.604   5.420  0.0971  0.0696  0.0838
    1DIPC   C1B 7017  24.861   2.764   6.066 -0.2642 -0.1924  0.0294
    1DIPC   D2B 7018  24.894   2.649   5.653 -0.1334 -0.1726 -0.1364
    1DIPC   D3B 7019  24.658   3.014   5.630  0.0658 -0.3920  0.0363
    1DIPC   C4B 7020  24.501   2.960   5.194 -0.0579  0.2300  0.0802
    1DIPC   NC3 7021  28.025  18.127   5.937  0.1810  0.1924  0.5391
    1DIPC   PO4 7022  28.260  17.779   6.079  0.0728 -0.0105  0.1353
    1DIPC   GL1 7023  28.206  17.532   5.709 -0.3550  0.0994 -0.2241
    1DIPC   GL2 7024  28.179  17.785   5.540 -0.1196  0.0303  0.1431
    1DIPC   C1A 7025  28.033  17.369   5.358 -0.2960 -0.0530 -0.1494
    1DIPC   D2A 7026  27.695  17.302   5.029 -0.1056 -0.1103 -0.2032
    1DIPC   D3A 7027  27.978  17.486   4.728  0.1192  0.1591 -0.2265
    1DIPC   C4A 7028  27.719  17.588   4.314  0.0336  0.0137 -0.3649
    1DIPC   C1B 7029  27.960  17.903   5.198 -0.2280  0.0991 -0.1960
    1DIPC   D2B 7030  28.232  17.933   4.879  0.0872 -0.2034 -0.0753
    1DIPC   D3B 7031  28.423  17.946   4.459 -0.0847  0.0333  0.0306
    1DIPC   C4B 7032  28.066  17.910   4.214  0.0495  0.0495 -0.2140
    1DIPC   NC3 7033  12.104  29.782   7.656  0.2756  0.2154  0.1478
    1DIPC   PO4 7034  12.290  30.064   7.425 -0.0935  0.0822  0.1881
    1DIPC   GL1 7035  12.315  29.859   7.112 -0.0364 -0.1163  0.1526
    1DIPC   GL2 7036  12.290  29.640   6.856 -0.1797 -0.2626  0.0377
    1DIPC   C1A 7037  11.857  29.890   6.868 -0.0093 -0.0825 -0.0547
    1DIPC   D2A 7038  11.497  29.615   6.640 -0.0379 -0.1837  0.1488
    1DIPC   D3A 7039  11.642  29.905   6.413  0.2224  0.1011  0.3871
    1DIPC   C4A 7040  11.963  30.173   6.439  0.0013  0.0357  0.2771
    1DIPC   C1B 7041  12.118  29.582   6.413 -0.2335 -0.0449 -0.1044
    1DIPC   D2B 7042  11.741  29.313   6.344  0.1315  0.1600  0.0562
    1DIPC   D3B 7043  11.647  28.954   6.053  0.1871 -0.1092  0.0012
    1DIPC   C4B 7044  11.476  29.123   5.709  0.2054  0.0882  0.2331
    1DIPC   NC3 7045   0.190  22.600   5.746 -0.0637  0.3215 -0.0640
    1DIPC   PO4 7046   0.569  22.783   5.747 -0.0872 -0.0685  0.3102
    1DIPC   GL1 7047   0.653  22.875   5.289  0.0233  0.2923 -0.0078
    1DIPC   GL2 7048   0.983  22.849   5.148 -0.0330 -0.0923  0.1566
    1DIPC   C1A 7049   0.338  22.916   4.993 -0.0174 -0.1361 -0.1117
    1DIPC   D2A 7050   0.275  22.937   4.478  0.0167  0.0469  0.0678
    1DIPC   D3A 7051  -0.101  23.184   4.290 -0.3061  0.0115 -0.2475
    1DIPC   C4A 7052  -0.335  23.474   4.497  0.2076  0.0359  0.0891
    1DIPC   C1B 7053   0.770  22.970   4.721 -0.1861 -0.1055  0.0538
    1DIPC   D2B 7054   0.743  23.011   4.241  0.0027  0.0545  0.1110
    1DIPC   D3B 7055   1.120  23.043   4.074 -0.0221  0.2027 -0.1611
    1DIPC   C4B 7056   1.262  22.746   4.371  0.3408  0.3383 -0.2818
    1DIPC   NC3 7057  27.088  19.413   6.635  0.2557  0.0210  0.1399
    1DIPC   PO4 7058  27.014  19.750   6.376  0.1556  0.2531  0.1347
    1DIPC   GL1 7059  27.112  19.723   5.935 -0.0757  0.1646  0.0684
    1DIPC   GL2 7060  27.458  19.727   5.893  0.0086  0.3198 -0.0854
    1DIPC   C1A 7061  27.113  19.588   5.508 -0.0904 -0.0656 -0.1711
    1DIPC   D2A 7062  27.082  19.927   5.180  0.3111  0.0056  0.2971
    1DIPC   D3A 7063  26.796  20.124   4.871 -0.1641  0.1733  0.1685
    1DIPC   C4A 7064  26.364  19.939   4.722 -0.0637 -0.1850  0.2229
    1DIPC   C1B 7065  27.516  19.387   5.742  0.0246  0.0997 -0.0486
    1DIPC   D2B 7066  27.550  19.212   5.330 -0.0002 -0.0265  0.1056
    1DIPC   D3B 7067  27.376  19.446   5.020 -0.0085 -0.1096  0.3154
    1DIPC   C4B 7068  27.404  19.249   4.720 -0.0592 -0.0059  0.0136
    1DIPC   NC3 7069  25.196  26.561   6.389 -0.2508 -0.4355 -0.0463
    1DIPC   PO4 7070  24.797  26.668   6.432  0.0942 -0.3449 -0.1422
    1DIPC   GL1 7071  24.603  26.742   6.111 -0.0908  0.2602 -0.0773
    1DIPC   GL2 7072  25.000  26.793   5.871 -0.2191 -0.1841 -0.1845
    1DIPC   C1A 7073  24.501  26.449   5.733 -0.2411  0.1374  0.0343
    1DIPC   D2A 7074  24.831  26.197   5.581  0.1110  0.2333  0.0355
    1DIPC   D3A 7075  24.790  26.526   5.320  0.1217 -0.0516  0.0681
    1DIPC   C4A 7076  25.015  26.623   4.883 -0.1637 -0.0651 -0.0697
    1DIPC   C1B 7077  24.728  26.987   5.579  0.0548 -0.5784 -0.2296
    1DIPC   D2B 7078  24.714  27.027   5.153  0.0772  0.0728  0.0065
    1DIPC   D3B 7079  25.014  27.141   4.829  0.0154  0.0982  0.1053
    1DIPC   C4B 7080  25.244  27.012   4.484  0.1416  0.3753 -0.1340
    1DIPC   NC3 7081  28.198   1.330   7.083 -0.0892 -0.0833 -0.0619
    1DIPC   PO4 7082  28.420   1.168   6.677  0.2481  0.0385 -0.0972
    1DIPC   GL1 7083  28.465   1.220   6.315 -0.0660  0.0990 -0.1481
    1DIPC   GL2 7084  28.755   1.039   6.230 -0.1083 -0.1250 -0.0744
    1DIPC   C1A 7085  28.276   1.658   6.144 -0.0293  0.3170 -0.1440
    1DIPC   D2A 7086  28.448   2.099   5.995 -0.0639  0.1066 -0.1929
    1DIPC   D3A 7087  28.438   2.128   5.464 -0.1346  0.0967 -0.1128
    1DIPC   C4A 7088  28.890   2.036   5.290  0.1138 -0.1188  0.1887
    1DIPC   C1B 7089  28.788   1.012   5.795 -0.0145  0.0676 -0.0147
    1DIPC   D2B 7090  28.903   0.972   5.378  0.0017 -0.3102 -0.2707
    1DIPC   D3B 7091  29.042   1.021   5.039 -0.2213 -0.0607  0.0264
    1DIPC   C4B 7092  28.743   1.119   4.568 -0.2127  0.0122  0.3370
    1DIPC   NC3 7093  17.466   6.769   6.468 -0.0356 -0.0046 -0.1390
    1DIPC   PO4 7094  17.739   7.193   6.430  0.4012  0.0200  0.4327
    1DIPC   GL1 7095  17.700   7.075   6.040  0.0043  0.0006 -0.0927
    1DIPC   GL2 7096  17.898   6.748   5.851  0.0367  0.0273 -0.2007
    1DIPC   C1A 7097  17.486   7.160   5.664 -0.2987  0.1638 -0.2892
    1DIPC   D2A 7098  17.349   7.165   5.227 -0.1255  0.0849 -0.1043
    1DIPC   D3A 7099  17.491   6.804   5.269  0.0826  0.0171  0.1656
    1DIPC   C4A 7100  17.924   6.771   5.375 -0.0962 -0.2821 -0.1090
    1DIPC   C1B 7101  17.552   6.664   5.728  0.1123 -0.0978 -0.2034
    1DIPC   D2B 7102  17.181   6.342   5.815  0.1090  0.1124  0.1720
    1DIPC   D3B 7103  17.162   6.392   5.504  0.0777  0.0433  0.0959
    1DIPC   C4B 7104  17.163   6.214   5.152  0.1089  0.0990  0.0870
    1DIPC   NC3 7105   1.458   9.639   6.437 -0.0175 -0.1186  0.0048
    1DIPC   PO4 7106   1.757   9.409   6.720  0.0435 -0.1190 -0.2163
    1DIPC   GL1 7107   1.957   9.354   6.362  0.0029  0.1143 -0.0950
    1DIPC   GL2 7108   1.913   9.597   6.126 -0.2885  0.0265 -0.0781
    1DIPC   C1A 7109   2.392   9.596   6.238 -0.1135  0.1700  0.4410
    1DIPC   D2A 7110   2.757   9.375   6.094 -0.0094 -0.0260  0.0105
    1DIPC   D3A 7111   2.852   9.835   6.023  0.1790 -0.1216 -0.0355
    1DIPC   C4A 7112   2.494  10.160   5.917  0.2476  0.1951  0.0823
    1DIPC   C1B 7113   2.166   9.706   5.793  0.1780  0.0708  0.0060
    1DIPC   D2B 7114   2.570   9.646   5.640 -0.0220 -0.0465  0.3086
    1DIPC   D3B 7115   2.794   9.210   5.521 -0.2005 -0.4581 -0.1580
    1DIPC   C4B 7116   3.200   9.203   5.353  0.0874 -0.2522  0.1098
    1DIPC   NC3 7117  19.480   5.291   6.991 -0.1302  0.0829  0.0359
    1DIPC   PO4 7118  19.226   5.439   6.554  0.0852 -0.0136 -0.0216
    1DIPC   GL1 7119  19.016   5.413   6.187 -0.0721 -0.0340 -0.0150
    1DIPC   GL2 7120  19.296   5.627   6.094 -0.2401 -0.1972 -0.1505
    1DIPC   C1A 7121  19.225   5.156   5.848 -0.2458 -0.0881  0.1633
    1DIPC   D2A 7122  19.078   5.154   5.524  0.1206 -0.0532  0.0859
    1DIPC   D3A 7123  18.673   5.195   5.594  0.2016 -0.0265 -0.0086
    1DIPC   C4A 7124  18.425   5.032   5.291  0.2793 -0.1879 -0.2144
    1DIPC   C1B 7125  19.506   5.596   5.765  0.1297 -0.0752 -0.2901
    1DIPC   D2B 7126  19.434   5.547   5.300 -0.0205 -0.1211 -0.1185
    1DIPC   D3B 7127  19.334   5.928   5.404 -0.0871 -0.0201 -0.3625
    1DIPC   C4B 7128  19.546   6.286   5.298  0.1112 -0.0098 -0.0344
    1DIPC   NC3 7129   3.366  29.717   7.125 -0.4302  0.1094 -0.1238
    1DIPC   PO4 7130   2.994  29.589   6.892  0.2047 -0.2461 -0.2189
    1DIPC   GL1 7131   3.105  29.470   6.394  0.3225  0.1490  0.2127
    1DIPC   GL2 7132   2.722  29.381   6.293 -0.0525  0.1483  0.1209
    1DIPC   C1A 7133   3.334  29.312   6.053  0.0665  0.1012  0.0721
    1DIPC   D2A 7134   3.567  29.371   5.668 -0.2441 -0.2283 -0.1037
    1DIPC   D3A 7135   3.692  29.828   5.702 -0.2639 -0.0651 -0.1151
    1DIPC   C4A 7136   4.052  29.881   5.583  0.0515 -0.0453 -0.1416
    1DIPC   C1B 7137   2.788  29.594   5.919  0.0794  0.0296  0.1591
    1DIPC   D2B 7138   2.908  29.371   5.641  0.1678  0.1762  0.1191
    1DIPC   D3B 7139   3.151  29.321   5.190 -0.1869 -0.0595  0.2129
    1DIPC   C4B 7140   3.020  29.753   5.020 -0.0063  0.1206  0.1909
    1DIPC   NC3 7141   2.210  26.561   6.520 -0.3148 -0.1310 -0.0822
    1DIPC   PO4 7142   1.811  26.546   6.300 -0.3243 -0.1213 -0.0714
    1DIPC   GL1 7143   1.704  26.747   6.003 -0.3552  0.0183  0.0896
    1DIPC   GL2 7144   1.569  26.561   5.794 -0.0720  0.0688 -0.1012
    1DIPC   C1A 7145   1.956  27.073   5.733 -0.1363 -0.2697  0.1120
    1DIPC   D2A 7146   2.245  27.200   5.479  0.1263 -0.0309 -0.0288
    1DIPC   D3A 7147   2.498  26.808   5.548 -0.0087 -0.1926  0.2893
    1DIPC   C4A 7148   2.807  26.826   5.156 -0.1197  0.0481  0.3676
    1DIPC   C1B 7149   1.441  26.780   5.492  0.1221  0.0358  0.1699
    1DIPC   D2B 7150   1.189  26.933   5.095  0.1823 -0.0116 -0.1771
    1DIPC   D3B 7151   1.053  26.451   5.133  0.1906  0.0575  0.1259
    1DIPC   C4B 7152   0.689  26.311   5.352 -0.2199 -0.1952 -0.1298
    1DIPC   NC3 7153  16.195  23.872   7.202 -0.3940 -0.1643 -0.3257
    1DIPC   PO4 7154  16.219  24.245   7.129  0.0555  0.2448  0.2572
    1DIPC   GL1 7155  16.324  24.371   6.698  0.1952  0.0449 -0.1776
    1DIPC   GL2 7156  16.266  24.618   6.735  0.1090 -0.1025 -0.0486
    1DIPC   C1A 7157  16.522  24.481   6.248 -0.0720  0.4518 -0.1474
    1DIPC   D2A 7158  16.706  24.493   5.864  0.2630  0.0301  0.0521
    1DIPC   D3A 7159  16.266  24.269   5.869 -0.0132  0.0932 -0.0309
    1DIPC   C4A 7160  15.852  24.248   5.593 -0.0546  0.0455  0.0023
    1DIPC   C1B 7161  16.297  24.937   6.315 -0.1338 -0.1275  0.0630
    1DIPC   D2B 7162  16.191  24.872   5.936  0.0692 -0.1452 -0.1796
    1DIPC   D3B 7163  16.207  24.675   5.513 -0.0590 -0.0394  0.0483
    1DIPC   C4B 7164  16.441  24.790   5.151  0.0361 -0.1661  0.0880
    1DIPC   NC3 7165   3.288  13.207   6.100 -0.2075 -0.0517  0.0896
    1DIPC   PO4 7166   3.415  13.606   6.004 -0.0375 -0.1150  0.1273
    1DIPC   GL1 7167   3.451  13.355   5.600  0.1555 -0.1890  0.1422
    1DIPC   GL2 7168   3.362  12.978   5.643 -0.1128  0.0864 -0.1720
    1DIPC   C1A 7169   3.548  13.127   5.192 -0.1874 -0.0856 -0.0187
    1DIPC   D2A 7170   3.598  13.123   4.709  0.3022  0.0851 -0.0227
    1DIPC   D3A 7171   3.306  13.291   4.464  0.3383 -0.0210  0.0304
    1DIPC   C4A 7172   3.154  13.181   4.116  0.0085  0.3897 -0.1472
    1DIPC   C1B 7173   3.299  12.642   5.321  0.0343  0.1315 -0.1899
    1DIPC   D2B 7174   3.382  12.183   5.063 -0.0818  0.1578  0.2994
    1DIPC   D3B 7175   3.409  11.882   5.320  0.0271  0.0496 -0.1020
    1DIPC   C4B 7176   3.283  11.425   5.155 -0.1500 -0.0510  0.0357
    1DIPC   NC3 7177  26.524   7.080   5.967  0.1194  0.1037  0.1437
    1DIPC   PO4 7178  25.999   7.175   6.047  0.3363 -0.0716 -0.1102
    1DIPC   GL1 7179  26.108   7.036   5.657  0.1651  0.0646  0.1308
    1DIPC   GL2 7180  25.954   6.950   5.454 -0.1855  0.0712 -0.0457
    1DIPC   C1A 7181  26.370   7.211   5.288  0.2534 -0.1035  0.1898
    1DIPC   D2A 7182  26.567   6.980   4.967  0.2274 -0.0883 -0.1763
    1DIPC   D3A 7183  26.670   7.253   4.633 -0.1340  0.0002 -0.2663
    1DIPC   C4A 7184  26.320   7.458   4.466 -0.0589  0.1807 -0.0893
    1DIPC   C1B 7185  26.211   6.700   5.171 -0.0689  0.1628 -0.0866
    1DIPC   D2B 7186  26.036   6.527   4.876  0.0625  0.1201  0.0136
    1DIPC   D3B 7187  25.510   6.500   4.661 -0.1549 -0.2086  0.0611
    1DIPC   C4B 7188  25.461   6.893   4.378  0.1665 -0.1264  0.3032
    1DIPC   NC3 7189   2.953  22.216   6.016  0.2806 -0.2430  0.3601
    1DIPC   PO4 7190   2.982  22.128   5.692  0.0288  0.1397 -0.0184
    1DIPC   GL1 7191   2.764  22.250   5.314  0.1007  0.0038 -0.1613
    1DIPC   GL2 7192   2.437  22.155   5.257 -0.2523 -0.1352 -0.2191
    1DIPC   C1A 7193   2.913  22.400   4.967 -0.0175 -0.1254 -0.1265
    1DIPC   D2A 7194   2.906  22.391   4.536 -0.2308 -0.0732  0.1704
    1DIPC   D3A 7195   3.140  22.861   4.569 -0.0958  0.0126  0.3460
    1DIPC   C4A 7196   3.398  23.012   4.220  0.2540 -0.3998 -0.5242
    1DIPC   C1B 7197   2.202  22.200   4.804 -0.3933 -0.3763 -0.3025
    1DIPC   D2B 7198   1.931  22.220   4.609  0.1768 -0.0096 -0.0347
    1DIPC   D3B 7199   1.997  22.380   4.221 -0.2024 -0.3097 -0.2347
    1DIPC   C4B 7200   2.033  22.039   3.994  0.3333  0.0999 -0.0400
    1DIPC   NC3 7201  26.436   6.943   6.936 -0.3085  0.2492 -0.1204
    1DIPC   PO4 7202  26.646   6.645   6.614 -0.0831  0.1237  0.0604
    1DIPC   GL1 7203  26.568   6.603   6.189 -0.0656 -0.1756 -0.1468
    1DIPC   GL2 7204  26.217   6.697   6.048 -0.0678  0.1092 -0.0151
    1DIPC   C1A 7205  26.637   6.384   5.835 -0.3327 -0.0638 -0.0959
    1DIPC   D2A 7206  26.462   6.252   5.384  0.2655 -0.0265  0.0976
    1DIPC   D3A 7207  26.787   6.641   5.406  0.0614  0.1487 -0.3515
    1DIPC   C4A 7208  27.168   6.756   5.567 -0.2515 -0.0130 -0.4215
    1DIPC   C1B 7209  26.166   6.495   5.685  0.0116  0.1506  0.1770
    1DIPC   D2B 7210  25.935   6.311   5.332 -0.0251  0.0527 -0.1546
    1DIPC   D3B 7211  25.701   6.123   5.644 -0.0843 -0.1931 -0.0023
    1DIPC   C4B 7212  25.677   5.758   5.740 -0.0710 -0.0611 -0.0430
    1DIPC   NC3 7213   5.516   3.139   7.092  0.1778 -0.0467 -0.0670
    1DIPC   PO4 7214   5.408   2.789   7.270  0.0761  0.0398 -0.1354
    1DIPC   GL1 7215   5.608   2.680   6.863 -0.1566  0.1799 -0.1051
    1DIPC   GL2 7216   5.742   2.939   6.668  0.0857  0.2313  0.2069
    1DIPC   C1A 7217   5.814   2.466   6.438  0.0561 -0.2433  0.3671
    1DIPC   D2A 7218   5.640   2.079   6.196 -0.0209 -0.0050  0.1213
    1DIPC   D3A 7219   5.590   2.197   5.825  0.0690 -0.0631  0.3693
    1DIPC   C4A 7220   5.433   2.049   5.366  0.0379 -0.1302 -0.1290
    1DIPC   C1B 7221   6.042   2.990   6.448 -0.2252  0.0951  0.0540
    1DIPC   D2B 7222   6.090   3.146   6.119 -0.0467 -0.3177 -0.2866
    1DIPC   D3B 7223   5.813   3.522   5.899 -0.3034  0.0680  0.1014
    1DIPC   C4B 7224   5.969   3.900   5.974 -0.1561 -0.1989 -0.1193
    1DIPC   NC3 7225  25.330  11.298   5.921 -0.3339 -0.1691 -0.2425
    1DIPC   PO4 7226  25.740  11.439   6.031 -0.0907  0.0653  0.0251
    1DIPC   GL1 7227  25.629  11.541   5.563 -0.0956 -0.0311  0.3093
    1DIPC   GL2 7228  25.739  11.336   5.387 -0.1240 -0.0828  0.0266
    1DIPC   C1A 7229  25.410  11.718   5.291  0.0462  0.2168 -0.0546
    1DIPC   D2A 7230  25.285  11.640   4.911  0.1453  0.1817  0.1165
    1DIPC   D3A 7231  25.357  11.473   4.488  0.1582 -0.2319  0.0671
    1DIPC   C4A 7232  25.667  11.158   4.375  0.1007 -0.0104 -0.2548
    1DIPC   C1B 7233  26.002  11.192   4.974  0.1381  0.2032  0.1242
    1DIPC   D2B 7234  26.127  11.128   4.567  0.5386  0.0847  0.0374
    1DIPC   D3B 7235  26.213  11.376   4.193  0.0328  0.2496 -0.0289
    1DIPC   C4B 7236  26.171  11.817   4.197  0.1074 -0.4208 -0.1754
    1DIPC   NC3 7237  26.666  26.581   6.631 -0.0284  0.0743  0.1368
    1DIPC   PO4 7238  26.178  26.531   6.450 -0.1492 -0.0685  0.0874
    1DIPC   GL1 7239  26.319  26.655   5.947 -0.1061  0.1272  0.1781
    1DIPC   GL2 7240  26.186  26.291   5.873 -0.0721 -0.1293  0.0535
    1DIPC   C1A 7241  26.395  26.836   5.526 -0.2509 -0.1124 -0.0408
    1DIPC   D2A 7242  26.107  26.872   5.174 -0.1200 -0.1909 -0.2683
    1DIPC   D3A 7243  25.888  26.701   5.332  0.1564 -0.1029  0.2164
    1DIPC   C4A 7244  25.871  26.608   5.777  0.2080 -0.0938 -0.0817
    1DIPC   C1B 7245  26.294  26.346   5.481  0.2471 -0.0509 -0.2417
    1DIPC   D2B 7246  26.483  26.407   5.121 -0.2981  0.0751 -0.1487
    1DIPC   D3B 7247  26.277  26.514   4.783 -0.1964 -0.0862 -0.1435
    1DIPC   C4B 7248  26.154  26.925   4.661  0.0224 -0.0271  0.0121
    1DIPC   NC3 7249  15.703   2.364   6.983  0.1918 -0.2838 -0.0139
    1DIPC   PO4 7250  16.162   2.414   6.917 -0.2338  0.0212  0.1881
    1DIPC   GL1 7251  16.097   2.474   6.401 -0.1699  0.0624 -0.2521
    1DIPC   GL2 7252  16.055   2.826   6.309 -0.2557 -0.1202  0.4937
    1DIPC   C1A 7253  16.189   2.498   5.901 -0.0107  0.0174 -0.0356
    1DIPC   D2A 7254  16.207   2.270   5.488 -0.0124 -0.0973 -0.0098
    1DIPC   D3A 7255  15.812   2.128   5.180  0.0024 -0.2411 -0.1231
    1DIPC   C4A 7256  15.547   2.580   5.086 -0.0186 -0.1164  0.0636
    1DIPC   C1B 7257  16.056   2.953   5.865 -0.1420  0.0025  0.2743
    1DIPC   D2B 7258  16.274   2.841   5.534  0.0685 -0.0208 -0.1204
    1DIPC   D3B 7259  16.153   2.697   5.166 -0.0810  0.0847  0.1576
    1DIPC   C4B 7260  16.358   2.386   4.980 -0.0436  0.0420  0.3061
    1DIPC   NC3 7261  19.850  28.532   6.948  0.1056  0.0219  0.0278
    1DIPC   PO4 7262  20.091  28.896   7.004 -0.1997 -0.0435 -0.1859
    1DIPC   GL1 7263  20.195  29.115   6.598 -0.0394 -0.1020 -0.3854
    1DIPC   GL2 7264  20.356  28.949   6.262 -0.1592  0.0859  0.0611
    1DIPC   C1A 7265  20.534  29.390   6.553 -0.0982  0.3783 -0.1157
    1DIPC   D2A 7266  20.862  29.722   6.609  0.0354  0.2908 -0.0734
    1DIPC   D3A 7267  21.107  29.612   6.616  0.1248 -0.0312 -0.1229
    1DIPC   C4A 7268  21.132  29.231   6.381  0.2494 -0.0916 -0.2955
    1DIPC   C1B 7269  20.248  28.948   5.845  0.1145  0.1654 -0.0166
    1DIPC   D2B 7270  19.881  28.956   5.548  0.1640  0.4476  0.1033
    1DIPC   D3B 7271  20.032  29.216   5.303  0.1761  0.1934  0.2443
    1DIPC   C4B 7272  20.301  29.271   4.951  0.1436 -0.0259 -0.1098
    1DIPC   NC3 7273  13.911   4.773   7.029 -0.1727  0.0480 -0.2917
    1DIPC   PO4 7274  13.882   4.595   6.574  0.3178  0.0672  0.1981
    1DIPC   GL1 7275  13.623   4.513   6.284 -0.0274  0.1426  0.0936
    1DIPC   GL2 7276  13.593   4.187   6.251 -0.0345 -0.1129 -0.0939
    1DIPC   C1A 7277  13.627   4.659   5.837 -0.0615 -0.0658 -0.2390
    1DIPC   D2A 7278  13.432   4.626   5.348  0.0277 -0.1675  0.0451
    1DIPC   D3A 7279  13.786   4.494   5.108  0.1482 -0.1101 -0.0811
    1DIPC   C4A 7280  14.043   4.342   5.488 -0.0974  0.2235  0.1789
    1DIPC   C1B 7281  13.520   4.167   5.793  0.1394 -0.1953  0.4005
    1DIPC   D2B 7282  13.272   4.166   5.534  0.0815 -0.0930  0.0350
    1DIPC   D3B 7283  13.661   3.963   5.380  0.2101  0.0450  0.0026
    1DIPC   C4B 7284  13.927   4.063   5.003  0.0468  0.1051  0.1204
    1DIPC   NC3 7285  15.046   6.432   7.149  0.1217 -0.1642  0.0751
    1DIPC   PO4 7286  14.985   6.853   7.158  0.0898 -0.1477 -0.2656
    1DIPC   GL1 7287  14.829   6.716   6.769  0.1646  0.1857 -0.0198
    1DIPC   GL2 7288  14.882   6.426   6.587  0.0273  0.0652  0.1259
    1DIPC   C1A 7289  14.590   6.861   6.397 -0.3030 -0.0100 -0.0097
    1DIPC   D2A 7290  14.193   7.011   6.140  0.1734 -0.0188 -0.2154
    1DIPC   D3A 7291  14.166   6.998   5.658 -0.0135 -0.0915  0.0679
    1DIPC   C4A 7292  13.902   6.828   5.407  0.2139 -0.0906  0.0480
    1DIPC   C1B 7293  14.633   6.348   6.248  0.1690 -0.0182  0.2998
    1DIPC   D2B 7294  14.468   6.637   5.855  0.2010  0.0018  0.0889
    1DIPC   D3B 7295  14.537   6.333   5.514 -0.0027  0.1086 -0.0513
    1DIPC   C4B 7296  14.231   6.442   5.245 -0.2823  0.0202  0.1419
    1DIPC   NC3 7297  27.627   6.254   6.434 -0.2974  0.1032  0.2410
    1DIPC   PO4 7298  28.031   6.350   6.524 -0.1896  0.3419  0.0866
    1DIPC   GL1 7299  27.945   6.335   6.011 -0.1976 -0.2346 -0.0505
    1DIPC   GL2 7300  27.749   6.544   5.959 -0.0250  0.1079 -0.2216
    1DIPC   C1A 7301  27.949   6.096   5.618  0.1908  0.0764  0.0419
    1DIPC   D2A 7302  27.743   6.143   5.181  0.1782  0.3676 -0.1674
    1DIPC   D3A 7303  27.772   6.356   4.786 -0.0702  0.3218 -0.0320
    1DIPC   C4A 7304  27.910   6.705   4.601 -0.0420 -0.0101  0.1449
    1DIPC   C1B 7305  27.545   6.420   5.643 -0.1576 -0.0939 -0.1930
    1DIPC   D2B 7306  27.123   6.237   5.552 -0.2837 -0.1318 -0.2359
    1DIPC   D3B 7307  26.923   6.090   5.169 -0.0785 -0.1802 -0.5822
    1DIPC   C4B 7308  26.908   5.672   4.990 -0.2964 -0.3349 -0.0622
    1DIPC   NC3 7309   2.078  29.407   6.811 -0.0169  0.2138 -0.1968
    1DIPC   PO4 7310   2.324  28.926   6.816 -0.1546 -0.0826 -0.0311
    1DIPC   GL1 7311   2.350  28.744   6.417  0.2931 -0.1694  0.2527
    1DIPC   GL2 7312   2.504  28.911   6.310 -0.0590  0.6022  0.2664
    1DIPC   C1A 7313   2.069  28.871   6.078 -0.0838 -0.1391 -0.0786
    1DIPC   D2A 7314   1.870  29.159   5.855 -0.1451 -0.1955  0.2264
    1DIPC   D3A 7315   1.621  29.032   6.143 -0.2313  0.1581  0.0432
    1DIPC   C4A 7316   1.529  28.616   6.183  0.0153 -0.3381  0.2170
    1DIPC   C1B 7317   2.427  29.237   5.871 -0.1900 -0.0860 -0.1089
    1DIPC   D2B 7318   2.317  29.478   5.652 -0.2886  0.1549 -0.1668
    1DIPC   D3B 7319   2.682  29.788   5.434 -0.3286  0.2428 -0.0550
    1DIPC   C4B 7320   2.522  29.977   5.053  0.0729 -0.2078  0.2581
    1DIPC   NC3 7321   1.182   4.868   7.366 -0.2208 -0.4719 -0.3087
    1DIPC   PO4 7322   1.270   4.824   6.974  0.1600 -0.2302 -0.0578
    1DIPC   GL1 7323   1.236   4.633   6.619 -0.1236  0.0943  0.6327
    1DIPC   GL2 7324   1.127   4.829   6.363 -0.2274  0.0670  0.3154
    1DIPC   C1A 7325   1.324   4.363   6.265 -0.1422  0.1962  0.0735
    1DIPC   D2A 7326   1.168   4.089   5.924 -0.0046 -0.2838  0.0127
    1DIPC   D3A 7327   0.954   4.321   5.589  0.3216 -0.0824 -0.0105
    1DIPC   C4A 7328   0.753   4.014   5.267 -0.2759 -0.0535 -0.4463
    1DIPC   C1B 7329   1.322   4.721   5.927  0.2192  0.0230  0.1667
    1DIPC   D2B 7330   1.185   4.783   5.456  0.2809 -0.1659 -0.0368
    1DIPC   D3B 7331   1.363   5.149   5.526 -0.3108  0.0077 -0.1277
    1DIPC   C4B 7332   1.216   5.610   5.249  0.2833  0.3207 -0.1893
    1DIPC   NC3 7333  25.258   4.184   6.934 -0.5039 -0.2440 -0.1076
    1DIPC   PO4 7334  25.252   4.021   6.549 -0.1630 -0.0994  0.0064
    1DIPC   GL1 7335  25.026   4.140   6.157  0.2410  0.0266 -0.0183
    1DIPC   GL2 7336  25.220   4.380   6.047  0.0580  0.3180 -0.1993
    1DIPC   C1A 7337  25.048   3.986   5.641 -0.0872 -0.0016 -0.1009
    1DIPC   D2A 7338  24.858   3.910   5.167  0.0133  0.1266  0.4071
    1DIPC   D3A 7339  24.576   4.080   5.346 -0.1740  0.2482 -0.0918
    1DIPC   C4A 7340  24.142   4.104   5.318 -0.0818  0.1511 -0.1992
    1DIPC   C1B 7341  25.436   4.474   5.727 -0.1266  0.0732 -0.1519
    1DIPC   D2B 7342  25.698   4.924   5.645  0.0867  0.0297 -0.0749
    1DIPC   D3B 7343  25.941   4.589   5.738  0.0191 -0.0795 -0.4819
    1DIPC   C4B 7344  26.036   4.196   5.519 -0.1511  0.1654 -0.3708
    1DIPC   NC3 7345  21.000  16.836   6.603 -0.0520 -0.0480 -0.0929
    1DIPC   PO4 7346  21.411  16.970   6.385 -0.1507 -0.3182  0.0660
    1DIPC   GL1 7347  21.603  17.203   6.061  0.1055 -0.0017  0.2278
    1DIPC   GL2 7348  21.404  17.148   5.934  0.1513 -0.3663 -0.0881
    1DIPC   C1A 7349  21.994  17.214   5.895  0.0754 -0.0605  0.0465
    1DIPC   D2A 7350  22.340  16.946   5.713  0.1147 -0.0445 -0.0950
    1DIPC   D3A 7351  22.163  16.994   5.286 -0.2737  0.1582  0.0266
    1DIPC   C4A 7352  22.325  16.979   4.832  0.1237 -0.4103  0.1667
    1DIPC   C1B 7353  21.441  17.308   5.490 -0.1718 -0.4669 -0.0168
    1DIPC   D2B 7354  21.610  17.095   5.074 -0.1266 -0.2320  0.3148
    1DIPC   D3B 7355  21.952  17.262   4.950  0.0222 -0.4579 -0.0166
    1DIPC   C4B 7356  22.297  17.410   4.619 -0.2229  0.1311 -0.2811
    1DIPC   NC3 7357  11.793   4.795   7.192  0.1044  0.0076 -0.2297
    1DIPC   PO4 7358  11.344   4.685   7.268  0.2898  0.1630 -0.1701
    1DIPC   GL1 7359  11.333   4.684   6.775  0.3395 -0.0562 -0.0362
    1DIPC   GL2 7360  11.122   4.410   6.650  0.1183 -0.0949  0.4211
    1DIPC   C1A 7361  11.274   4.786   6.262  0.1289  0.2779  0.1083
    1DIPC   D2A 7362  11.017   4.968   5.903  0.0827 -0.2053  0.0026
    1DIPC   D3A 7363  10.930   4.809   5.516 -0.1015  0.3191 -0.1651
    1DIPC   C4A 7364  10.596   4.932   5.210  0.1208  0.3179 -0.0612
    1DIPC   C1B 7365  11.576   4.325   6.452 -0.2609 -0.1704  0.0844
    1DIPC   D2B 7366  12.036   4.173   6.343  0.0370 -0.0252  0.0117
    1DIPC   D3B 7367  12.039   3.919   6.061  0.3168 -0.0456 -0.0885
    1DIPC   C4B 7368  12.193   4.115   5.632  0.2569  0.0377 -0.1251
    1DIPC   NC3 7369  16.581   0.524   6.542  0.4193 -0.0125  0.1686
    1DIPC   PO4 7370  16.950   0.383   6.407 -0.1563  0.0906  0.0882
    1DIPC   GL1 7371  16.744   0.545   6.057  0.3973  0.0969 -0.1528
    1DIPC   GL2 7372  16.601   0.240   5.934  0.0022  0.1376 -0.0286
    1DIPC   C1A 7373  16.602   0.636   5.604  0.1479  0.3563  0.2043
    1DIPC   D2A 7374  16.420   0.443   5.227 -0.0104 -0.1057 -0.0698
    1DIPC   D3A 7375  16.206   0.009   5.104 -0.0551 -0.1611  0.1390
    1DIPC   C4A 7376  16.286  -0.297   5.302  0.0795 -0.3624 -0.0994
    1DIPC   C1B 7377  16.619   0.133   5.526 -0.4187  0.2756  0.1690
    1DIPC   D2B 7378  16.778  -0.195   5.301  0.0152  0.4728  0.0906
    1DIPC   D3B 7379  16.661  -0.232   4.876 -0.0962 -0.1163 -0.0656
    1DIPC   C4B 7380  16.557  -0.302   4.440  0.1176 -0.3036  0.1011
    1DIPC   NC3 7381  24.832  19.970   6.526  0.1509 -0.0188  0.2516
    1DIPC   PO4 7382  25.232  20.012   6.415 -0.4954  0.0843  0.0628
    1DIPC   GL1 7383  25.391  19.821   6.047  0.4656 -0.0859  0.0632
    1DIPC   GL2 7384  25.470  19.566   6.066 -0.2146  0.1551 -0.3744
    1DIPC   C1A 7385  25.421  19.959   5.646  0.1712  0.1062  0.2988
    1DIPC   D2A 7386  25.081  20.010   5.203 -0.0094  0.4230 -0.1677
    1DIPC   D3A 7387  25.055  19.674   5.485 -0.1758 -0.1356 -0.0842
    1DIPC   C4A 7388  24.869  19.831   5.921 -0.3797 -0.2874 -0.3023
    1DIPC   C1B 7389  25.590  19.450   5.671  0.0592 -0.3690 -0.0681
    1DIPC   D2B 7390  25.556  19.565   5.232  0.2838 -0.1112  0.0790
    1DIPC   D3B 7391  25.511  19.719   4.807 -0.2516 -0.5458  0.3579
    1DIPC   C4B 7392  25.133  20.025   4.678 -0.0049  0.1187 -0.0227
    1DIPC   NC3 7393  21.877  17.802   7.111 -0.0111 -0.0227  0.0942
    1DIPC   PO4 7394  21.928  18.263   6.978 -0.1583  0.1267 -0.0948
    1DIPC   GL1 7395  21.806  18.244   6.517 -0.0326  0.1206 -0.0395
    1DIPC   GL2 7396  21.794  17.936   6.573 -0.2520 -0.2280 -0.2672
    1DIPC   C1A 7397  21.718  18.144   6.127  0.4248 -0.0398  0.0781
    1DIPC   D2A 7398  21.842  18.179   5.692  0.0494  0.2026 -0.1237
    1DIPC   D3A 7399  22.242  18.173   5.672  0.0754  0.1936  0.0322
    1DIPC   C4A 7400  22.460  18.297   5.322  0.0685 -0.1594 -0.1933
    1DIPC   C1B 7401  21.776  17.658   6.215  0.1689 -0.1935 -0.5111
    1DIPC   D2B 7402  21.589  17.659   5.854  0.1400 -0.2024  0.3284
    1DIPC   D3B 7403  21.529  17.856   5.494  0.4195 -0.0769  0.0626
    1DIPC   C4B 7404  21.673  17.633   5.077 -0.1802 -0.2040  0.1832
    1DIPC   NC3 7405   1.789   8.122   6.457 -0.1382  0.1070 -0.1337
    1DIPC   PO4 7406   2.029   8.441   6.456 -0.0474  0.2521  0.2471
    1DIPC   GL1 7407   2.188   8.820   6.231  0.0438  0.0098  0.0963
    1DIPC   GL2 7408   1.897   8.879   6.041 -0.0123 -0.2533  0.0131
    1DIPC   C1A 7409   2.245   9.200   5.957  0.1303  0.4247 -0.0003
    1DIPC   D2A 7410   2.305   9.247   5.579  0.2477  0.2836  0.0970
    1DIPC   D3A 7411   1.872   9.320   5.659 -0.2506  0.0140 -0.1592
    1DIPC   C4A 7412   1.532   8.969   5.631  0.0741  0.2332 -0.0989
    1DIPC   C1B 7413   1.998   8.816   5.682  0.4102 -0.0749  0.2694
    1DIPC   D2B 7414   1.967   8.930   5.350 -0.1901  0.1745 -0.1414
    1DIPC   D3B 7415   1.618   8.517   5.417 -0.2446 -0.1868  0.0430
    1DIPC   C4B 7416   1.495   8.499   5.810  0.3119 -0.0021  0.4044
    1DIPC   NC3 7417  23.778   7.154   6.771  0.1258  0.0544 -0.0486
    1DIPC   PO4 7418  23.652   7.611   6.745 -0.1636  0.1226  0.2340
    1DIPC   GL1 7419  23.857   7.529   6.383  0.0335  0.1855  0.2182
    1DIPC   GL2 7420  23.905   7.225   6.259 -0.1456  0.1444  0.0048
    1DIPC   C1A 7421  23.629   7.663   6.151 -0.0882 -0.1386 -0.2640
    1DIPC   D2A 7422  23.267   7.970   6.080  0.0954  0.2896  0.0362
    1DIPC   D3A 7423  23.252   7.796   5.717 -0.2950 -0.0030  0.0386
    1DIPC   C4A 7424  23.078   8.124   5.589 -0.1151  0.1053  0.2037
    1DIPC   C1B 7425  23.975   7.394   5.866  0.1623 -0.3153  0.0778
    1DIPC   D2B 7426  23.757   7.522   5.529  0.0110  0.1326 -0.1320
    1DIPC   D3B 7427  23.600   7.576   5.017 -0.1111 -0.3361 -0.2551
    1DIPC   C4B 7428  23.798   7.755   4.714  0.2944  0.0946 -0.0972
    1DIPC   NC3 7429   0.381   6.694   6.535  0.0131 -0.0355 -0.2000
    1DIPC   PO4 7430   0.707   6.889   6.373 -0.0688 -0.0008  0.1204
    1DIPC   GL1 7431   0.716   7.058   5.943 -0.0860  0.2127 -0.2120
    1DIPC   GL2 7432   0.753   7.298   5.788 -0.0259 -0.0657 -0.0293
    1DIPC   C1A 7433   0.960   7.005   5.443 -0.0423  0.1055  0.1492
    1DIPC   D2A 7434   1.316   6.932   5.291 -0.2081 -0.2549 -0.1055
    1DIPC   D3A 7435   1.464   7.287   5.008  0.1510 -0.0368 -0.4022
    1DIPC   C4A 7436   1.701   7.612   4.997 -0.0743 -0.1935 -0.0689
    1DIPC   C1B 7437   0.671   7.515   5.445 -0.0719  0.0728  0.0291
    1DIPC   D2B 7438   0.657   7.554   5.058 -0.2109  0.1417 -0.0171
    1DIPC   D3B 7439   0.977   7.231   5.031 -0.1154  0.2462 -0.1556
    1DIPC   C4B 7440   1.025   6.821   4.899 -0.1634 -0.0670 -0.4514
    1DIPC   NC3 7441  15.626   3.269   6.909  0.0059  0.0741 -0.1842
    1DIPC   PO4 7442  15.401   2.948   6.763  0.1855  0.0544 -0.0627
    1DIPC   GL1 7443  15.567   2.661   6.434  0.1250 -0.2440 -0.0623
    1DIPC   GL2 7444  15.608   2.963   6.273  0.1336 -0.0136  0.1361
    1DIPC   C1A 7445  15.633   2.524   5.940  0.1603  0.3465 -0.0632
    1DIPC   D2A 7446  15.829   2.573   5.581 -0.0483 -0.2091 -0.0497
    1DIPC   D3A 7447  15.415   2.805   5.547 -0.0489  0.0086  0.0500
    1DIPC   C4A 7448  15.076   2.775   5.200  0.0146  0.1315 -0.2437
    1DIPC   C1B 7449  15.492   3.186   5.965 -0.0520 -0.1964  0.1799
    1DIPC   D2B 7450  15.423   3.384   5.522  0.2072  0.0440  0.3303
    1DIPC   D3B 7451  15.262   3.689   5.840  0.2317 -0.0685 -0.0191
    1DIPC   C4B 7452  15.383   4.073   5.789 -0.1009  0.1514  0.2520
    1DIPC   NC3 7453   1.187   3.239   7.154  0.1022  0.2787  0.2714
    1DIPC   PO4 7454   0.811   3.469   6.985 -0.1359 -0.4330  0.0946
    1DIPC   GL1 7455   0.958   3.456   6.560  0.0704  0.0442  0.2330
    1DIPC   GL2 7456   1.126   3.175   6.648  0.2488  0.3097  0.0930
    1DIPC   C1A 7457   0.953   3.613   6.123 -0.2690 -0.0454  0.1177
    1DIPC   D2A 7458   0.828   3.774   5.715  0.0241 -0.1805  0.0004
    1DIPC   D3A 7459   0.410   3.663   5.581 -0.1052 -0.2164  0.1299
    1DIPC   C4A 7460   0.065   3.552   5.718 -0.0113  0.0442 -0.4081
    1DIPC   C1B 7461   0.686   3.084   6.381 -0.1708 -0.0691 -0.2004
    1DIPC   D2B 7462   0.255   3.130   6.447 -0.2300 -0.0810  0.3862
    1DIPC   D3B 7463   0.376   3.423   6.069  0.0154 -0.3809 -0.2249
    1DIPC   C4B 7464   0.719   3.309   5.817  0.0341 -0.2393 -0.1759
    1DIPC   NC3 7465  22.630  23.101   6.829  0.3078  0.0074  0.3328
    1DIPC   PO4 7466  22.352  23.418   6.636  0.0030 -0.2334  0.1199
    1DIPC   GL1 7467  22.296  23.620   6.241  0.1803 -0.1901 -0.1422
    1DIPC   GL2 7468  22.229  23.994   6.178 -0.2965 -0.1906 -0.0158
    1DIPC   C1A 7469  22.302  23.660   5.671  0.4412 -0.4322  0.2427
    1DIPC   D2A 7470  22.271  23.884   5.317 -0.1975 -0.2468 -0.0405
    1DIPC   D3A 7471  22.600  24.196   5.124  0.2547 -0.0952  0.0207
    1DIPC   C4A 7472  22.887  24.457   5.250  0.0601  0.2141 -0.0778
    1DIPC   C1B 7473  22.149  24.223   5.818 -0.0560  0.1202  0.4383
    1DIPC   D2B 7474  21.873  24.542   5.853 -0.1419  0.1511  0.1182
    1DIPC   D3B 7475  21.836  25.030   5.665  0.2754 -0.0998  0.3093
    1DIPC   C4B 7476  22.233  25.189   5.379  0.1306 -0.0477 -0.2758
    1DIPC   NC3 7477  28.819  26.111   6.260  0.0006  0.0647  0.1919
    1DIPC   PO4 7478  28.942  26.598   6.263 -0.0066  0.2257 -0.1087
    1DIPC   GL1 7479  28.574  26.729   6.067 -0.3781 -0.1218 -0.2274
    1DIPC   GL2 7480  28.729  26.573   5.714  0.2028 -0.1574 -0.0253
    1DIPC   C1A 7481  28.466  26.985   5.773 -0.0418 -0.1634  0.0024
    1DIPC   D2A 7482  28.613  27.249   5.388  0.1909  0.3009 -0.0380
    1DIPC   D3A 7483  28.882  26.795   5.294  0.0056 -0.2463 -0.2808
    1DIPC   C4A 7484  28.805  26.554   5.113 -0.2762  0.1080  0.0146
    1DIPC   C1B 7485  28.474  26.562   5.475  0.0183 -0.1885  0.3505
    1DIPC   D2B 7486  28.324  26.846   5.250 -0.2919 -0.1952  0.0337
    1DIPC   D3B 7487  28.556  26.893   4.824 -0.1555 -0.0428  0.1739
    1DIPC   C4B 7488  28.883  26.799   4.660  0.0459  0.3596  0.0361
    1DIPC   NC3 7489  10.379  29.508   7.642 -0.1832  0.0686 -0.2642
    1DIPC   PO4 7490  10.026  29.549   7.325 -0.0030 -0.0888  0.1626
    1DIPC   GL1 7491   9.891  29.641   6.843 -0.1068  0.3935  0.2136
    1DIPC   GL2 7492   9.799  29.438   6.589  0.2423  0.2342 -0.4210
    1DIPC   C1A 7493   9.842  30.037   6.580 -0.0622 -0.0936 -0.0610
    1DIPC   D2A 7494   9.748  30.104   6.194 -0.2822 -0.0487  0.2146
    1DIPC   D3A 7495  10.036  29.781   5.997  0.2238 -0.0771  0.3650
    1DIPC   C4A 7496  10.482  29.784   6.007 -0.3216  0.0043 -0.2832
    1DIPC   C1B 7497   9.718  29.201   6.196  0.0879 -0.2151  0.0543
    1DIPC   D2B 7498   9.679  29.435   5.704  0.1592  0.2613  0.1131
    1DIPC   D3B 7499   9.935  29.737   5.525 -0.1228 -0.1832  0.0073
    1DIPC   C4B 7500   9.913  29.916   5.140  0.1232  0.2724 -0.1491
    1DIPC   NC3 7501   0.126   6.267   6.933 -0.1106  0.0383 -0.0044
    1DIPC   PO4 7502   0.174   6.227   6.532  0.0714  0.1674 -0.0576
    1DIPC   GL1 7503  -0.031   6.159   6.188  0.0509  0.2463  0.0705
    1DIPC   GL2 7504  -0.302   6.299   6.024  0.2325 -0.0440 -0.1108
    1DIPC   C1A 7505  -0.021   5.959   5.842  0.1207 -0.1574 -0.0124
    1DIPC   D2A 7506   0.180   5.758   5.498  0.0269  0.0998  0.0644
    1DIPC   D3A 7507  -0.118   5.937   5.290 -0.0990 -0.2237 -0.0369
    1DIPC   C4A 7508  -0.249   5.809   4.843  0.0856 -0.2149  0.2052
    1DIPC   C1B 7509   0.078   6.430   5.690 -0.0538  0.4047 -0.3476
    1DIPC   D2B 7510   0.137   6.702   5.250  0.3416  0.0489 -0.5186
    1DIPC   D3B 7511   0.339   6.229   5.239 -0.0234 -0.0986  0.1527
    1DIPC   C4B 7512   0.441   5.982   4.838  0.1513  0.1323  0.1118
    1DIPC   NC3 7513   9.429   4.146   7.169  0.2027  0.1659  0.2751
    1DIPC   PO4 7514   9.146   4.464   7.292 -0.4459 -0.3891  0.1377
    1DIPC   GL1 7515   9.092   4.581   6.878 -0.0859  0.1633  0.1153
    1DIPC   GL2 7516   9.441   4.483   6.689  0.3650  0.0289  0.0408
    1DIPC   C1A 7517   9.072   4.731   6.476 -0.2058 -0.1645 -0.1086
    1DIPC   D2A 7518   9.216   4.982   6.161  0.1248  0.4809 -0.2634
    1DIPC   D3A 7519   9.439   5.125   5.829 -0.4214  0.1376 -0.1295
    1DIPC   C4A 7520   9.524   5.535   5.938 -0.1534  0.0016 -0.2935
    1DIPC   C1B 7521   9.534   4.336   6.219 -0.2955 -0.3875 -0.0439
    1DIPC   D2B 7522   9.950   4.246   6.049  0.3864  0.0500 -0.2778
    1DIPC   D3B 7523  10.093   4.514   6.361  0.0367 -0.0162  0.3114
    1DIPC   C4B 7524  10.338   4.849   6.105  0.2242 -0.0730 -0.1072
    1DIPC   NC3 7525  28.139  24.924   6.449  0.0636  0.1463 -0.0789
    1DIPC   PO4 7526  28.311  25.372   6.286  0.1643 -0.1556  0.1741
    1DIPC   GL1 7527  28.391  25.553   5.845 -0.1711  0.1506  0.0020
    1DIPC   GL2 7528  28.433  25.849   5.796 -0.2992  0.1238 -0.0634
    1DIPC   C1A 7529  28.719  25.678   5.454  0.0847  0.0054  0.3294
    1DIPC   D2A 7530  28.704  25.610   5.035  0.0476  0.0380  0.0615
    1DIPC   D3A 7531  28.669  25.826   4.673 -0.0595 -0.4305 -0.1450
    1DIPC   C4A 7532  28.874  26.265   4.565  0.0886  0.0311 -0.1280
    1DIPC   C1B 7533  28.167  26.111   5.432 -0.2839  0.4363  0.1998
    1DIPC   D2B 7534  27.812  26.281   5.228  0.0843  0.1359 -0.0309
    1DIPC   D3B 7535  28.151  26.341   4.922 -0.1018 -0.1229 -0.1179
    1DIPC   C4B 7536  28.128  26.683   4.663  0.3888  0.2799 -0.0907
    1DIPC   NC3 7537  24.035  17.759   6.526 -0.0067  0.0542  0.1417
    1DIPC   PO4 7538  24.435  17.499   6.492  0.2860 -0.0993 -0.1532
    1DIPC   GL1 7539  24.359  17.875   6.125 -0.1629  0.0188  0.1148
    1DIPC   GL2 7540  23.979  17.799   6.035 -0.0441  0.0047  0.0749
    1DIPC   C1A 7541  24.594  18.008   5.775 -0.3079 -0.0888  0.3296
    1DIPC   D2A 7542  24.901  17.930   5.432  0.2422 -0.1814 -0.0065
    1DIPC   D3A 7543  24.555  17.724   5.299 -0.0510  0.0723  0.2477
    1DIPC   C4A 7544  24.513  17.578   4.879 -0.1098 -0.1322  0.3566
    1DIPC   C1B 7545  23.675  17.803   5.734 -0.0595 -0.2362  0.1161
    1DIPC   D2B 7546  23.435  17.922   5.357  0.1249 -0.0487  0.1043
    1DIPC   D3B 7547  23.458  18.053   4.911 -0.0309 -0.2785  0.3320
    1DIPC   C4B 7548  23.749  18.393   4.830 -0.2157 -0.1693  0.0440
    1DIPC   NC3 7549  23.776  18.838   6.642  0.3240 -0.0661  0.1064
    1DIPC   PO4 7550  23.316  18.629   6.641  0.2656 -0.3193 -0.0670
    1DIPC   GL1 7551  23.336  18.840   6.287  0.1247  0.1549  0.3895
    1DIPC   GL2 7552  23.112  19.125   6.374 -0.1369 -0.1464  0.2217
    1DIPC   C1A 7553  23.483  18.934   5.928 -0.0711 -0.2579  0.0265
    1DIPC   D2A 7554  23.447  19.277   5.800 -0.2238  0.1780 -0.1992
    1DIPC   D3A 7555  23.609  19.374   6.273 -0.2075 -0.1635 -0.2516
    1DIPC   C4A 7556  23.967  19.729   6.245 -0.0470  0.1820 -0.1299
    1DIPC   C1B 7557  23.101  19.436   6.070  0.6004  0.1463  0.0499
    1DIPC   D2B 7558  22.998  19.209   5.611 -0.3077 -0.1788  0.3634
    1DIPC   D3B 7559  23.026  19.228   5.107  0.2765  0.2419 -0.0940
    1DIPC   C4B 7560  23.196  19.427   4.695 -0.2044 -0.2480  0.1706
    1DIPC   NC3 7561  28.217   2.221   6.975  0.0376  0.0641  0.0412
    1DIPC   PO4 7562  28.283   2.543   6.780  0.0187  0.2611  0.1128
    1DIPC   GL1 7563  28.359   2.591   6.328  0.0327 -0.2036 -0.1699
    1DIPC   GL2 7564  28.715   2.640   6.227  0.0015 -0.3360  0.0399
    1DIPC   C1A 7565  28.429   2.951   5.943  0.2287  0.0532 -0.1498
    1DIPC   D2A 7566  28.220   3.279   5.665 -0.3074  0.3261  0.4274
    1DIPC   D3A 7567  27.961   3.008   5.828 -0.1780  0.2624 -0.1176
    1DIPC   C4A 7568  27.617   2.808   5.515  0.1956  0.0885  0.1989
    1DIPC   C1B 7569  28.757   2.642   5.809  0.0140  0.0074 -0.2851
    1DIPC   D2B 7570  28.734   2.586   5.333 -0.1782 -0.3383 -0.0074
    1DIPC   D3B 7571  28.625   2.958   5.151  0.3660  0.1646  0.1399
    1DIPC   C4B 7572  28.231   3.076   5.044 -0.2362 -0.0506 -0.3221
    1DIPC   NC3 7573  28.289  24.386   6.488  0.0481  0.2903  0.1045
    1DIPC   PO4 7574  28.608  24.645   6.415 -0.0280 -0.1216  0.0058
    1DIPC   GL1 7575  28.476  24.722   5.985 -0.1119  0.0865 -0.2098
    1DIPC   GL2 7576  28.443  24.979   6.058  0.0169  0.0926 -0.4581
    1DIPC   C1A 7577  28.548  24.500   5.605 -0.0427  0.0499 -0.0326
    1DIPC   D2A 7578  28.840  24.311   5.380 -0.2210 -0.0291 -0.3009
    1DIPC   D3A 7579  28.608  24.176   5.121 -0.3668 -0.0164  0.0075
    1DIPC   C4A 7580  28.322  24.338   4.899 -0.1760 -0.3074 -0.0846
    1DIPC   C1B 7581  28.496  25.117   5.605 -0.1318  0.2140 -0.0626
    1DIPC   D2B 7582  28.541  25.169   5.168  0.0148 -0.1040 -0.3073
    1DIPC   D3B 7583  28.292  25.357   4.878 -0.4566  0.2242 -0.0922
    1DIPC   C4B 7584  28.304  25.174   4.432 -0.0361  0.1744 -0.4150
    1DIPC   NC3 7585  24.272  24.860   6.604 -0.0410 -0.1813 -0.0093
    1DIPC   PO4 7586  23.955  24.833   6.783  0.0623  0.0132 -0.1246
    1DIPC   GL1 7587  23.737  24.773   6.415  0.0319 -0.0620 -0.2292
    1DIPC   GL2 7588  24.050  24.639   6.246 -0.0606  0.1505  0.0220
    1DIPC   C1A 7589  23.913  25.029   6.025 -0.0213  0.2606 -0.2997
    1DIPC   D2A 7590  23.978  24.945   5.570  0.0570 -0.0212 -0.0634
    1DIPC   D3A 7591  23.994  24.659   5.282  0.0374 -0.1457  0.4750
    1DIPC   C4A 7592  23.882  24.714   4.795  0.2462  0.1074  0.1908
    1DIPC   C1B 7593  23.926  24.492   5.782 -0.1008  0.0603 -0.4178
    1DIPC   D2B 7594  23.528  24.563   5.503 -0.1237  0.0255  0.0643
    1DIPC   D3B 7595  23.491  24.414   5.092  0.0708 -0.2170  0.2434
    1DIPC   C4B 7596  23.158  24.138   5.012 -0.3420 -0.3641 -0.0704
    1DIPC   NC3 7597  25.746  25.176   6.369  0.2959  0.0619  0.1059
    1DIPC   PO4 7598  25.859  25.620   6.342  0.0828  0.0827 -0.0805
    1DIPC   GL1 7599  25.580  25.685   5.890 -0.0786 -0.1303 -0.1856
    1DIPC   GL2 7600  25.712  25.503   5.682 -0.1110 -0.0666 -0.0246
    1DIPC   C1A 7601  25.362  26.033   5.547 -0.0296  0.0433  0.0007
    1DIPC   D2A 7602  25.123  26.218   5.171  0.1781 -0.0973 -0.1368
    1DIPC   D3A 7603  24.826  26.210   4.760  0.3102  0.2648 -0.1261
    1DIPC   C4A 7604  25.032  26.332   4.364 -0.1286  0.1252 -0.0844
    1DIPC   C1B 7605  25.626  25.645   5.228  0.1609  0.1567  0.0913
    1DIPC   D2B 7606  25.676  26.018   4.929 -0.1258 -0.0029 -0.3774
    1DIPC   D3B 7607  25.534  26.115   4.514 -0.2690 -0.0231  0.0798
    1DIPC   C4B 7608  25.292  25.878   4.260 -0.2287 -0.1438  0.0622
    1DIPC   NC3 7609  20.821   0.411   7.502 -0.0447  0.2573  0.3938
    1DIPC   PO4 7610  20.613   0.435   7.043  0.0355  0.2124  0.2794
    1DIPC   GL1 7611  20.950   0.403   6.613  0.0656  0.3244  0.0722
    1DIPC   GL2 7612  21.331   0.279   6.602 -0.1064 -0.2632  0.0533
    1DIPC   C1A 7613  20.837   0.323   6.230 -0.0384 -0.0059 -0.0106
    1DIPC   D2A 7614  20.639   0.211   5.891  0.2634  0.0158 -0.2759
    1DIPC   D3A 7615  21.103   0.195   5.743 -0.2816  0.1807  0.1063
    1DIPC   C4A 7616  21.235   0.312   5.344  0.1615 -0.2262 -0.4293
    1DIPC   C1B 7617  21.323   0.362   6.212 -0.1413 -0.1447  0.0116
    1DIPC   D2B 7618  21.366   0.597   5.944  0.1918 -0.2150  0.2104
    1DIPC   D3B 7619  21.424   1.024   5.829  0.3764 -0.0367 -0.3778
    1DIPC   C4B 7620  21.557   1.099   5.401 -0.0678 -0.2381  0.0541
    1DIPC   NC3 7621   0.402  12.287   6.044 -0.1163  0.2391 -0.0112
    1DIPC   PO4 7622   0.839  12.247   6.151 -0.3534  0.0279 -0.1450
    1DIPC   GL1 7623   1.138  12.044   5.879 -0.0318 -0.1926 -0.5251
    1DIPC   GL2 7624   1.124  11.716   5.767 -0.1518  0.2310  0.0263
    1DIPC   C1A 7625   1.360  12.179   5.539  0.2428  0.0480  0.2336
    1DIPC   D2A 7626   1.795  12.107   5.501 -0.0843  0.0150 -0.1819
    1DIPC   D3A 7627   2.063  11.874   5.167 -0.0489  0.0631  0.0508
    1DIPC   C4A 7628   2.525  11.927   5.073 -0.0183 -0.0596 -0.0626
    1DIPC   C1B 7629   0.872  11.862   5.385 -0.0754  0.4121 -0.3338
    1DIPC   D2B 7630   0.710  11.840   5.008  0.3065 -0.2513  0.1364
    1DIPC   D3B 7631   0.379  12.157   4.950 -0.0440  0.0608  0.0256
    1DIPC   C4B 7632   0.433  12.369   4.471  0.1055 -0.1207  0.0063
    1DIPC   NC3 7633   7.018   1.132   6.624  0.0696 -0.3548 -0.0561
    1DIPC   PO4 7634   6.636   0.911   6.866 -0.0332  0.2652 -0.1602
    1DIPC   GL1 7635   6.701   0.637   6.471 -0.0797 -0.2098  0.3978
    1DIPC   GL2 7636   6.919   0.799   6.218 -0.0341 -0.3511  0.1588
    1DIPC   C1A 7637   6.506   0.506   6.134  0.3785 -0.1875  0.1769
    1DIPC   D2A 7638   6.103   0.436   6.016  0.2553  0.1389 -0.0914
    1DIPC   D3A 7639   6.177   0.003   5.928 -0.1051 -0.0085 -0.2852
    1DIPC   C4A 7640   5.898  -0.332   5.744  0.1541  0.1261 -0.2521
    1DIPC   C1B 7641   6.902   0.712   5.801  0.0712  0.1804  0.0535
    1DIPC   D2B 7642   7.148   0.891   5.464  0.2314  0.2240  0.0172
    1DIPC   D3B 7643   6.700   0.824   5.314 -0.1754 -0.2028  0.3054
    1DIPC   C4B 7644   6.427   0.458   5.180  0.0446 -0.0074 -0.1899
    1DIPC   NC3 7645  28.095  15.582   6.286  0.2649 -0.1376 -0.0149
    1DIPC   PO4 7646  28.131  15.979   6.398 -0.1210 -0.0103  0.3622
    1DIPC   GL1 7647  28.131  15.890   5.911 -0.2465  0.0369 -0.2388
    1DIPC   GL2 7648  28.037  16.195   5.719 -0.2090  0.1586  0.1871
    1DIPC   C1A 7649  28.440  15.731   5.629  0.1436 -0.0852 -0.0315
    1DIPC   D2A 7650  28.401  15.552   5.218 -0.1315 -0.0843 -0.1322
    1DIPC   D3A 7651  27.989  15.457   5.440 -0.1625  0.0762  0.0424
    1DIPC   C4A 7652  27.813  15.000   5.387 -0.2211 -0.2122  0.2996
    1DIPC   C1B 7653  28.060  16.610   5.700 -0.1038  0.0245  0.0541
    1DIPC   D2B 7654  28.068  17.041   5.792 -0.0422 -0.2042  0.1122
    1DIPC   D3B 7655  27.797  16.952   5.438 -0.1151 -0.1826 -0.2494
    1DIPC   C4B 7656  28.063  16.892   5.038 -0.1045  0.0473  0.1733
    1DIPC   NC3 7657  27.591  15.889   5.839  0.0642 -0.2240 -0.1095
    1DIPC   PO4 7658  27.684  15.465   5.913  0.0419  0.1237 -0.0013
    1DIPC   GL1 7659  27.530  15.430   5.520  0.0042  0.1808  0.0396
    1DIPC   GL2 7660  27.106  15.308   5.539 -0.1020 -0.2069  0.2408
    1DIPC   C1A 7661  27.566  15.527   5.144 -0.0169  0.0820  0.0838
    1DIPC   D2A 7662  27.948  15.512   4.909 -0.0673  0.1005 -0.2124
    1DIPC   D3A 7663  27.835  15.866   4.700  0.2715  0.1835  0.1408
    1DIPC   C4A 7664  27.810  16.262   4.863  0.2155 -0.1595  0.1263
    1DIPC   C1B 7665  27.031  15.567   5.134  0.0403 -0.1940 -0.2370
    1DIPC   D2B 7666  26.754  15.693   4.820  0.0838  0.0583 -0.0683
    1DIPC   D3B 7667  26.841  15.634   4.366 -0.1307  0.1241 -0.0407
    1DIPC   C4B 7668  26.595  15.469   4.068 -0.0054  0.0829  0.0104
    1DIPC   NC3 7669   0.973  24.894   6.215  0.0165 -0.1431  0.0568
    1DIPC   PO4 7670   0.534  25.109   5.974 -0.0933  0.2029 -0.0578
    1DIPC   GL1 7671   0.617  25.281   5.585  0.1472 -0.0603 -0.0238
    1DIPC   GL2 7672   0.933  25.322   5.377 -0.1906 -0.0406  0.0075
    1DIPC   C1A 7673   0.537  25.635   5.345  0.0786 -0.0787 -0.0092
    1DIPC   D2A 7674   0.376  25.777   4.916 -0.0143 -0.0419 -0.0859
    1DIPC   D3A 7675   0.189  25.789   4.498 -0.0568 -0.0941 -0.0043
    1DIPC   C4A 7676   0.307  25.807   4.110 -0.0651  0.1554 -0.1207
    1DIPC   C1B 7677   0.999  25.202   4.899 -0.1632 -0.2536  0.2263
    1DIPC   D2B 7678   1.305  25.110   4.508 -0.0548  0.1384  0.2751
    1DIPC   D3B 7679   1.091  25.351   4.223 -0.2700  0.0764 -0.1871
    1DIPC   C4B 7680   0.792  25.118   4.087  0.1071  0.0402 -0.2425
    1DIPC   NC3 7681   3.028  24.722   5.997 -0.0732  0.1199  0.0962
    1DIPC   PO4 7682   2.865  24.734   5.587 -0.0639 -0.1750 -0.0901
    1DIPC   GL1 7683   2.979  24.848   5.247 -0.1626 -0.1629 -0.0882
    1DIPC   GL2 7684   2.904  24.439   5.197  0.1497  0.1974  0.2777
    1DIPC   C1A 7685   2.919  25.015   4.856 -0.1014 -0.2344  0.1136
    1DIPC   D2A 7686   2.819  24.875   4.481  0.0629 -0.0305  0.2358
    1DIPC   D3A 7687   3.013  24.989   4.025 -0.3271  0.1200 -0.3970
    1DIPC   C4A 7688   2.888  25.397   4.093  0.0455  0.1074  0.1445
    1DIPC   C1B 7689   3.287  24.316   5.103  0.0331 -0.0467  0.0613
    1DIPC   D2B 7690   3.617  24.085   4.828 -0.0138 -0.2596  0.1442
    1DIPC   D3B 7691   3.468  24.260   4.556 -0.0542  0.0427 -0.0717
    1DIPC   C4B 7692   3.803  24.414   4.116 -0.1200  0.0266 -0.2453
    1DIPC   NC3 7693  21.059  26.595   7.162 -0.0358 -0.0878  0.2279
    1DIPC   PO4 7694  20.847  26.885   7.050 -0.1570  0.1714  0.0289
    1DIPC   GL1 7695  21.047  26.930   6.605 -0.0445  0.1739  0.0642
    1DIPC   GL2 7696  21.323  26.806   6.384  0.0577  0.0809  0.2176
    1DIPC   C1A 7697  20.992  27.148   6.211  0.0637 -0.3070 -0.4663
    1DIPC   D2A 7698  21.256  27.146   5.907  0.0337  0.1153  0.0695
    1DIPC   D3A 7699  21.203  27.597   5.985 -0.0311 -0.0710  0.3259
    1DIPC   C4A 7700  20.881  27.718   6.244  0.1621  0.1860 -0.1089
    1DIPC   C1B 7701  21.437  26.645   6.128 -0.1332  0.0129  0.3493
    1DIPC   D2B 7702  21.648  26.742   5.769 -0.0048 -0.0098 -0.2986
    1DIPC   D3B 7703  21.266  26.834   5.416 -0.1024  0.3230  0.0005
    1DIPC   C4B 7704  21.311  26.609   5.052  0.0138  0.0861 -0.0835
    1DIPC   NC3 7705  11.111  27.911   7.243 -0.0227  0.1246 -0.2816
    1DIPC   PO4 7706  10.659  27.770   7.079 -0.0891  0.1010  0.2567
    1DIPC   GL1 7707  10.648  27.841   6.625 -0.0467 -0.0968 -0.0687
    1DIPC   GL2 7708  10.338  27.806   6.424  0.3795 -0.0356 -0.2214
    1DIPC   C1A 7709  10.810  28.144   6.432 -0.0651  0.0779  0.0147
    1DIPC   D2A 7710  10.781  28.396   6.133  0.0540 -0.0304  0.1615
    1DIPC   D3A 7711  10.958  28.815   6.030  0.0216 -0.1531 -0.0684
    1DIPC   C4A 7712  10.912  28.990   5.644  0.1763  0.4068  0.0990
    1DIPC   C1B 7713  10.352  28.125   6.169 -0.0172  0.0260 -0.2246
    1DIPC   D2B 7714  10.015  28.102   5.846 -0.1277 -0.3443  0.1163
    1DIPC   D3B 7715  10.240  28.364   5.635 -0.0864 -0.1998  0.2426
    1DIPC   C4B 7716   9.928  28.587   5.347 -0.0556  0.2406 -0.0857
    1DIPC   NC3 7717   1.019  12.751   6.324 -0.0631  0.0088  0.0431
    1DIPC   PO4 7718   1.456  12.958   6.307  0.3210  0.0010  0.2050
    1DIPC   GL1 7719   1.415  12.684   5.995 -0.3197 -0.0287  0.0603
    1DIPC   GL2 7720   1.186  12.588   5.841  0.1631 -0.1941  0.0744
    1DIPC   C1A 7721   1.737  12.659   5.644  0.1367 -0.0339 -0.2817
    1DIPC   D2A 7722   1.615  12.763   5.212 -0.1009  0.1867 -0.0002
    1DIPC   D3A 7723   1.558  12.430   5.021  0.0125  0.1570 -0.1630
    1DIPC   C4A 7724   1.221  12.584   4.775  0.2677  0.2460 -0.2093
    1DIPC   C1B 7725   1.314  12.930   5.587 -0.0361  0.0374  0.0213
    1DIPC   D2B 7726   1.520  13.370   5.374  0.0512 -0.0204 -0.2489
    1DIPC   D3B 7727   1.100  13.328   5.355  0.1758 -0.1575  0.1200
    1DIPC   C4B 7728   1.103  12.990   5.102 -0.1477 -0.0130 -0.0298
    1DIPC   NC3 7729  23.597  12.554   6.298 -0.0402 -0.2113  0.0564
    1DIPC   PO4 7730  23.637  12.122   6.219 -0.2548 -0.0940  0.2758
    1DIPC   GL1 7731  23.719  11.867   5.721  0.1304 -0.1869 -0.3346
    1DIPC   GL2 7732  23.418  11.820   5.530 -0.0517 -0.2482  0.1291
    1DIPC   C1A 7733  23.763  11.890   5.190 -0.2806  0.1511 -0.1752
    1DIPC   D2A 7734  23.978  12.124   4.926  0.1747 -0.2499  0.1287
    1DIPC   D3A 7735  23.774  11.940   4.551 -0.0998  0.1417 -0.1272
    1DIPC   C4A 7736  23.466  12.212   4.333 -0.0108 -0.0204 -0.0836
    1DIPC   C1B 7737  23.272  11.577   5.211 -0.0947 -0.0700 -0.0228
    1DIPC   D2B 7738  23.204  11.321   4.778 -0.1008  0.4327 -0.2265
    1DIPC   D3B 7739  23.580  11.535   4.757  0.2654 -0.2062 -0.0923
    1DIPC   C4B 7740  23.926  11.550   4.312 -0.2499 -0.1845 -0.1820
    1DIPC   NC3 7741  27.451  29.501   6.652  0.0497 -0.1603 -0.1010
    1DIPC   PO4 7742  27.849  29.758   6.406 -0.1173  0.1917 -0.3537
    1DIPC   GL1 7743  27.452  29.814   6.157 -0.1858 -0.1217 -0.2369
    1DIPC   GL2 7744  27.185  29.571   6.217 -0.0884  0.2222 -0.0068
    1DIPC   C1A 7745  27.306  29.833   5.784 -0.3634 -0.2139 -0.2292
    1DIPC   D2A 7746  27.330  29.912   5.439 -0.2180 -0.1301 -0.0415
    1DIPC   D3A 7747  27.185  29.647   5.146  0.0675  0.1975  0.1569
    1DIPC   C4A 7748  27.410  29.294   4.982  0.0878 -0.0353 -0.0830
    1DIPC   C1B 7749  27.177  29.303   5.863  0.0010  0.1042 -0.1383
    1DIPC   D2B 7750  27.209  29.179   5.436  0.1351  0.0507  0.0540
    1DIPC   D3B 7751  26.849  29.331   5.045  0.0441 -0.1437 -0.2363
    1DIPC   C4B 7752  26.453  29.582   5.130  0.1346 -0.0607  0.0433
    1DIPC   NC3 7753   6.935   6.884   7.179  0.0825 -0.1667 -0.0056
    1DIPC   PO4 7754   7.314   7.044   7.148  0.1820 -0.1289  0.2423
    1DIPC   GL1 7755   7.181   6.999   6.691 -0.3066  0.2671  0.0856
    1DIPC   GL2 7756   7.022   7.278   6.804  0.2345  0.0199 -0.0150
    1DIPC   C1A 7757   7.236   7.005   6.177  0.2469 -0.3462 -0.2003
    1DIPC   D2A 7758   7.178   6.765   5.760  0.2332 -0.0072 -0.0490
    1DIPC   D3A 7759   7.501   6.384   5.895 -0.2542 -0.1715 -0.1015
    1DIPC   C4A 7760   7.925   6.463   5.746 -0.1239 -0.0192 -0.0749
    1DIPC   C1B 7761   6.851   7.238   6.422 -0.0460  0.1973  0.2440
    1DIPC   D2B 7762   6.861   7.137   5.930 -0.1779  0.3554  0.0280
    1DIPC   D3B 7763   7.321   7.247   5.737  0.2702 -0.0648  0.0439
    1DIPC   C4B 7764   7.644   6.993   5.927  0.3635  0.1570  0.3913
    1DIPC   NC3 7765  16.971  25.799   7.402 -0.3411  0.0524 -0.2154
    1DIPC   PO4 7766  17.285  25.794   7.073  0.2694  0.1612 -0.0194
    1DIPC   GL1 7767  17.363  26.005   6.630  0.2129  0.2977 -0.3427
    1DIPC   GL2 7768  17.585  25.723   6.389 -0.0831  0.3955 -0.1512
    1DIPC   C1A 7769  17.228  26.075   6.199  0.2557  0.1734  0.1016
    1DIPC   D2A 7770  16.969  25.968   5.866 -0.0491 -0.2011 -0.0950
    1DIPC   D3A 7771  17.272  26.281   5.608 -0.0297  0.6258 -0.1299
    1DIPC   C4A 7772  17.511  26.048   5.243 -0.2918  0.3639  0.0956
    1DIPC   C1B 7773  17.547  25.507   5.922 -0.1232 -0.2439  0.1159
    1DIPC   D2B 7774  17.595  25.123   5.939 -0.1255 -0.1899 -0.0145
    1DIPC   D3B 7775  17.712  25.097   6.323  0.2249  0.2859  0.0016
    1DIPC   C4B 7776  17.545  24.747   6.586 -0.3586 -0.0976  0.3776
    1DIPC   NC3 7777  24.691   0.048   7.171 -0.0675 -0.0977 -0.1736
    1DIPC   PO4 7778  24.803   0.011   6.768  0.2139  0.0812 -0.1208
    1DIPC   GL1 7779  24.778  -0.036   6.397 -0.0036 -0.0473 -0.1024
    1DIPC   GL2 7780  24.962  -0.304   6.209 -0.1456  0.1113  0.0515
    1DIPC   C1A 7781  24.611   0.084   6.083  0.0398  0.0757  0.0037
    1DIPC   D2A 7782  24.619   0.189   5.618  0.2338 -0.1735  0.1037
    1DIPC   D3A 7783  24.172   0.109   5.730 -0.0948 -0.2210 -0.3055
    1DIPC   C4A 7784  23.928   0.070   5.395  0.0867 -0.0042  0.0201
    1DIPC   C1B 7785  24.819  -0.340   5.757 -0.4025  0.1611 -0.3825
    1DIPC   D2B 7786  24.442  -0.331   5.598 -0.0657 -0.3980 -0.1529
    1DIPC   D3B 7787  24.054  -0.525   5.530 -0.1481 -0.1890  0.1875
    1DIPC   C4B 7788  23.767  -0.381   5.160  0.3244 -0.2708 -0.2026
    1DIPC   NC3 7789   7.494  24.415   6.176  0.3077 -0.0515 -0.2128
    1DIPC   PO4 7790   7.686  24.828   6.199  0.0982 -0.0257 -0.0595
    1DIPC   GL1 7791   7.300  24.841   5.796 -0.2380 -0.1350  0.0496
    1DIPC   GL2 7792   7.185  25.136   5.665  0.1853 -0.0447 -0.0983
    1DIPC   C1A 7793   7.279  24.843   5.306  0.1638 -0.1597  0.0389
    1DIPC   D2A 7794   7.566  24.701   5.001 -0.2006 -0.3841 -0.1421
    1DIPC   D3A 7795   7.615  24.861   4.579  0.0300 -0.0254  0.2824
    1DIPC   C4A 7796   7.193  24.892   4.293 -0.0174 -0.0951  0.0898
    1DIPC   C1B 7797   6.960  25.208   5.173  0.1054  0.1846  0.1082
    1DIPC   D2B 7798   7.120  25.019   4.853 -0.0728  0.2030  0.0469
    1DIPC   D3B 7799   6.746  24.804   4.771  0.0615 -0.2514  0.3383
    1DIPC   C4B 7800   6.381  25.016   4.668  0.1017 -0.1717  0.0083
    1DIPC   NC3 7801   6.103   7.555   7.183 -0.3007 -0.1939  0.3953
    1DIPC   PO4 7802   5.880   7.168   7.094 -0.2945 -0.0779  0.0937
    1DIPC   GL1 7803   6.067   7.113   6.666  0.0509  0.0631  0.0157
    1DIPC   GL2 7804   6.201   6.765   6.790  0.0938  0.1911 -0.3206
    1DIPC   C1A 7805   6.347   7.184   6.410  0.0855  0.2550 -0.1333
    1DIPC   D2A 7806   6.353   7.211   5.937 -0.2472 -0.0208  0.4783
    1DIPC   D3A 7807   6.643   7.586   5.809  0.0923  0.0521  0.2876
    1DIPC   C4A 7808   6.756   7.692   5.368  0.3670 -0.2836 -0.0562
    1DIPC   C1B 7809   6.331   6.640   6.387  0.2003  0.3821 -0.1723
    1DIPC   D2B 7810   6.563   6.222   6.387 -0.2205 -0.0168  0.1323
    1DIPC   D3B 7811   6.581   5.859   6.638 -0.1376  0.1363  0.2849
    1DIPC   C4B 7812   6.239   5.475   6.627 -0.1103  0.0750 -0.1887
    1DIPC   NC3 7813   4.350  22.180   5.790 -0.2363  0.1679 -0.1458
    1DIPC   PO4 7814   4.571  21.767   5.764 -0.0335 -0.3131  0.0660
    1DIPC   GL1 7815   4.515  21.964   5.323 -0.0955 -0.0062 -0.0991
    1DIPC   GL2 7816   4.667  21.780   5.068 -0.1169 -0.3518  0.2559
    1DIPC   C1A 7817   4.394  22.215   4.916  0.1530 -0.3195  0.3985
    1DIPC   D2A 7818   4.542  22.407   4.514  0.0553  0.2325 -0.0088
    1DIPC   D3A 7819   4.835  22.395   4.093 -0.2673 -0.2446  0.1034
    1DIPC   C4A 7820   5.186  22.117   3.939 -0.0280  0.1494 -0.1282
    1DIPC   C1B 7821   4.602  21.416   4.724 -0.0759  0.3202  0.0602
    1DIPC   D2B 7822   4.670  21.375   4.335  0.1736 -0.0156  0.3144
    1DIPC   D3B 7823   4.667  20.989   4.304  0.1850 -0.0426 -0.3268
    1DIPC   C4B 7824   5.114  20.829   4.085 -0.3758 -0.2212  0.1576
    1DIPC   NC3 7825  18.015  18.469   7.273  0.0437  0.1484  0.1742
    1DIPC   PO4 7826  17.997  18.031   7.180  0.0352  0.2266  0.1890
    1DIPC   GL1 7827  17.818  18.096   6.766  0.0344 -0.0078  0.0906
    1DIPC   GL2 7828  17.719  18.432   6.841  0.1464  0.1154  0.1015
    1DIPC   C1A 7829  17.713  18.261   6.299 -0.0961  0.2530 -0.0699
    1DIPC   D2A 7830  17.529  18.047   6.043  0.4955  0.3043 -0.2311
    1DIPC   D3A 7831  17.667  18.412   5.807 -0.2718 -0.0714  0.2407
    1DIPC   C4A 7832  17.649  18.549   5.419  0.0355  0.0845 -0.2937
    1DIPC   C1B 7833  17.463  18.619   6.587 -0.1542  0.1874 -0.1793
    1DIPC   D2B 7834  17.208  18.836   6.303  0.0816 -0.1085  0.0450
    1DIPC   D3B 7835  16.939  19.020   6.060  0.1483 -0.0356 -0.2241
    1DIPC   C4B 7836  16.610  19.173   6.028  0.3591 -0.2111  0.3037
    1DIPC   NC3 7837  21.566   2.449   7.014  0.1254 -0.0201 -0.0102
    1DIPC   PO4 7838  21.598   2.759   6.705 -0.1898  0.1024 -0.1126
    1DIPC   GL1 7839  21.708   2.842   6.260 -0.0908  0.0461 -0.0419
    1DIPC   GL2 7840  21.703   3.166   6.131  0.1668 -0.1773 -0.0712
    1DIPC   C1A 7841  21.854   2.690   5.781 -0.3405  0.1926  0.0210
    1DIPC   D2A 7842  21.935   2.365   5.581 -0.0444 -0.0865 -0.3783
    1DIPC   D3A 7843  21.765   2.569   5.223 -0.1950 -0.0160  0.1193
    1DIPC   C4A 7844  21.350   2.303   5.047 -0.0344 -0.3329 -0.2138
    1DIPC   C1B 7845  21.919   3.200   5.810  0.2292 -0.1320  0.0937
    1DIPC   D2B 7846  21.480   2.960   5.551  0.1591  0.1236  0.0391
    1DIPC   D3B 7847  21.475   2.970   5.126 -0.1452 -0.0616 -0.1421
    1DIPC   C4B 7848  21.502   2.675   4.794  0.2528 -0.0478  0.0803
    1DIPC   NC3 7849   6.975   3.787   7.603 -0.2090  0.2230 -0.0251
    1DIPC   PO4 7850   6.815   3.963   7.292  0.1395 -0.1536 -0.0282
    1DIPC   GL1 7851   6.717   3.865   6.824 -0.0232  0.1050  0.1028
    1DIPC   GL2 7852   6.826   3.621   6.685  0.1521 -0.0334  0.0900
    1DIPC   C1A 7853   6.918   4.073   6.538 -0.0354  0.0005 -0.0508
    1DIPC   D2A 7854   7.118   3.954   6.032  0.1213 -0.0043 -0.0540
    1DIPC   D3A 7855   7.295   4.033   5.685 -0.0268  0.0369 -0.0985
    1DIPC   C4A 7856   7.393   3.665   5.384  0.1858 -0.0472 -0.0417
    1DIPC   C1B 7857   6.821   3.570   6.211 -0.0113 -0.3703  0.1827
    1DIPC   D2B 7858   6.852   3.465   5.852  0.1322 -0.0905 -0.0284
    1DIPC   D3B 7859   6.570   3.292   5.509 -0.1251  0.0276  0.0465
    1DIPC   C4B 7860   6.124   3.198   5.424 -0.1733  0.2590  0.1964
    1DIPC   NC3 7861   8.979  10.006   7.535  0.0993 -0.1468  0.3133
    1DIPC   PO4 7862   8.802  10.515   7.564  0.1553 -0.1597 -0.1030
    1DIPC   GL1 7863   8.697  10.221   7.173 -0.0673  0.1494 -0.1854
    1DIPC   GL2 7864   8.440  10.360   7.025  0.1917  0.1911  0.3397
    1DIPC   C1A 7865   9.021  10.085   6.922  0.3334 -0.1257 -0.1737
    1DIPC   D2A 7866   8.983   9.791   6.546  0.2546 -0.3264  0.4417
    1DIPC   D3A 7867   9.287  10.031   6.408  0.2277 -0.0266  0.2266
    1DIPC   C4A 7868   9.541   9.970   6.091  0.0028 -0.1285 -0.1030
    1DIPC   C1B 7869   8.661  10.652   6.736 -0.2400  0.1839 -0.0583
    1DIPC   D2B 7870   8.747  10.643   6.344 -0.1462  0.3376 -0.0387
    1DIPC   D3B 7871   8.982  10.366   6.041 -0.1529  0.2119 -0.1047
    1DIPC   C4B 7872   8.915   9.937   6.085  0.1824 -0.0641  0.0435
    1DIPC   NC3 7873  24.885  17.323   6.506 -0.0273 -0.0020 -0.1024
    1DIPC   PO4 7874  25.217  17.563   6.152 -0.1459  0.2815  0.2198
    1DIPC   GL1 7875  25.171  17.470   5.707  0.1927 -0.0344  0.0003
    1DIPC   GL2 7876  25.256  17.209   5.590  0.0746 -0.1424 -0.2500
    1DIPC   C1A 7877  25.220  17.603   5.310  0.0737 -0.3116  0.1394
    1DIPC   D2A 7878  25.063  17.512   4.906 -0.1744 -0.1032  0.0669
    1DIPC   D3A 7879  24.858  17.928   4.713  0.0511  0.2540 -0.1560
    1DIPC   C4A 7880  24.915  18.217   4.413  0.1242  0.0708 -0.0451
    1DIPC   C1B 7881  25.271  17.171   5.171  0.0833 -0.1488  0.1235
    1DIPC   D2B 7882  25.328  17.018   4.798 -0.2204 -0.3024  0.2594
    1DIPC   D3B 7883  24.986  17.369   4.447 -0.5123 -0.1702  0.0548
    1DIPC   C4B 7884  24.808  17.738   4.273  0.1186 -0.2829  0.2081
    1DIPC   NC3 7885   0.777   4.327   6.828  0.0398  0.2513 -0.0828
    1DIPC   PO4 7886   0.472   4.442   6.705  0.0406 -0.0846  0.2035
    1DIPC   GL1 7887   0.570   4.320   6.285 -0.0680 -0.2273 -0.1479
    1DIPC   GL2 7888   0.856   4.342   6.214 -0.1787  0.0354  0.0135
    1DIPC   C1A 7889   0.421   4.352   5.875 -0.0880  0.2631  0.0969
    1DIPC   D2A 7890   0.441   4.178   5.569  0.2882 -0.0447 -0.3055
    1DIPC   D3A 7891   0.377   4.478   5.332  0.0086 -0.1051  0.0518
    1DIPC   C4A 7892   0.176   4.558   4.899  0.0284 -0.3254 -0.2036
    1DIPC   C1B 7893   0.810   4.663   5.945  0.4316  0.1450  0.0722
    1DIPC   D2B 7894   0.920   5.070   5.835  0.1903 -0.0315  0.3408
    1DIPC   D3B 7895   0.664   4.973   5.396  0.1643 -0.0481  0.0343
    1DIPC   C4B 7896   0.834   5.336   5.072 -0.1759 -0.0515 -0.0012
    1DIPC   NC3 7897   6.169  21.252   5.839 -0.0419  0.0574 -0.2312
    1DIPC   PO4 7898   6.218  21.613   5.595 -0.0475  0.0652  0.1806
    1DIPC   GL1 7899   6.217  21.798   5.178 -0.0730  0.1543 -0.0859
    1DIPC   GL2 7900   6.623  21.708   5.092  0.2337  0.1021 -0.0794
    1DIPC   C1A 7901   6.069  21.786   4.737  0.0021  0.0124  0.0977
    1DIPC   D2A 7902   5.973  21.982   4.370  0.2120 -0.2190  0.1178
    1DIPC   D3A 7903   6.112  21.898   4.016  0.2134 -0.0346  0.0105
    1DIPC   C4A 7904   6.207  21.461   3.794 -0.0323  0.2019  0.3244
    1DIPC   C1B 7905   6.859  21.534   4.754 -0.2160 -0.1699  0.1747
    1DIPC   D2B 7906   6.948  21.404   4.445 -0.1201  0.1774 -0.0080
    1DIPC   D3B 7907   7.127  21.719   4.165  0.0158  0.2519 -0.0955
    1DIPC   C4B 7908   7.315  22.089   4.099  0.2094 -0.2984 -0.0882
    1DIPC   NC3 7909  28.961  17.896   6.435  0.1538  0.0094 -0.2055
    1DIPC   PO4 7910  28.656  18.132   6.254 -0.0268  0.0729 -0.0081
    1DIPC   GL1 7911  28.621  18.043   5.751  0.1968 -0.1520 -0.0163
    1DIPC   GL2 7912  28.905  17.919   5.565 -0.2857 -0.1230 -0.1727
    1DIPC   C1A 7913  28.562  18.105   5.313 -0.2439  0.0921  0.1091
    1DIPC   D2A 7914  28.687  17.806   5.083  0.0425  0.1131  0.1606
    1DIPC   D3A 7915  28.677  18.198   4.816 -0.1542 -0.0798 -0.1071
    1DIPC   C4A 7916  28.545  18.589   4.733  0.0913 -0.0761  0.2736
    1DIPC   C1B 7917  29.054  18.085   5.131 -0.1710 -0.0491 -0.1544
    1DIPC   D2B 7918  29.271  18.306   4.805 -0.1885  0.0819 -0.1462
    1DIPC   D3B 7919  29.111  17.982   4.601  0.1993  0.1458  0.2444
    1DIPC   C4B 7920  29.254  17.644   4.283  0.1806  0.4763 -0.0707
    1DIPC   NC3 7921  20.419  24.684   6.833 -0.1903 -0.1917  0.1100
    1DIPC   PO4 7922  20.819  24.677   6.786 -0.0014 -0.1380  0.0314
    1DIPC   GL1 7923  20.646  24.704   6.404 -0.4527  0.0291 -0.1710
    1DIPC   GL2 7924  20.349  24.894   6.387 -0.1941  0.1411  0.2807
    1DIPC   C1A 7925  20.279  24.529   6.070  0.1639 -0.3042  0.1356
    1DIPC   D2A 7926  20.154  24.258   5.705 -0.2532 -0.1010 -0.0799
    1DIPC   D3A 7927  20.442  24.097   5.411  0.4240  0.0117 -0.0722
    1DIPC   C4A 7928  20.837  24.368   5.439 -0.0583  0.0696  0.0153
    1DIPC   C1B 7929  20.539  25.031   5.970  0.0319  0.0243 -0.0598
    1DIPC   D2B 7930  20.842  25.156   5.607  0.5063 -0.0368  0.0268
    1DIPC   D3B 7931  21.041  25.413   5.425 -0.0325 -0.0488  0.1715
    1DIPC   C4B 7932  21.393  25.160   5.257 -0.0677 -0.2433 -0.0650
    1DIPC   NC3 7933  19.521  21.321   7.259  0.0304 -0.0036 -0.1962
    1DIPC   PO4 7934  20.043  21.303   7.250  0.1527  0.2239 -0.1289
    1DIPC   GL1 7935  20.004  21.516   6.898 -0.0288 -0.0795  0.1938
    1DIPC   GL2 7936  20.224  21.782   6.789  0.0469  0.2591 -0.0574
    1DIPC   C1A 7937  20.289  21.350   6.541  0.1065 -0.1248  0.0976
    1DIPC   D2A 7938  20.599  21.155   6.375 -0.2376 -0.0150  0.0027
    1DIPC   D3A 7939  20.429  21.299   6.040 -0.0197  0.0087  0.1445
    1DIPC   C4A 7940  20.602  21.375   5.695 -0.1906 -0.0249 -0.2563
    1DIPC   C1B 7941  20.173  22.164   6.675 -0.1277  0.2708  0.0842
    1DIPC   D2B 7942  20.068  22.573   6.562 -0.0398 -0.3849  0.0281
    1DIPC   D3B 7943  20.483  22.500   6.571 -0.1222  0.1354  0.2488
    1DIPC   C4B 7944  20.685  22.123   6.550 -0.0541  0.1459  0.6769
    1DIPC   NC3 7945  29.327  10.381   6.129  0.0041  0.0171 -0.1402
    1DIPC   PO4 7946  28.937  10.536   5.900 -0.0833 -0.0566 -0.4106
    1DIPC   GL1 7947  28.986  10.886   5.566  0.0148 -0.0310 -0.1756
    1DIPC   GL2 7948  29.018  11.281   5.525 -0.0403  0.0675 -0.1066
    1DIPC   C1A 7949  29.220  10.940   5.170  0.2270  0.2296 -0.1261
    1DIPC   D2A 7950  29.317  11.142   4.833  0.0417  0.0977 -0.1004
    1DIPC   D3A 7951  29.077  11.506   4.556 -0.0256  0.1141 -0.1069
    1DIPC   C4A 7952  29.150  11.700   4.141 -0.4839  0.1442  0.1285
    1DIPC   C1B 7953  28.965  11.376   5.048 -0.3800  0.0370 -0.1080
    1DIPC   D2B 7954  28.601  11.390   4.620  0.1934  0.1936 -0.0103
    1DIPC   D3B 7955  28.444  11.329   5.028 -0.1783  0.0266  0.1824
    1DIPC   C4B 7956  28.528  11.159   5.439  0.0402  0.1541  0.0053
    1DIPC   NC3 7957   8.703  29.334   6.942 -0.2912 -0.0550 -0.0025
    1DIPC   PO4 7958   9.015  29.543   7.211 -0.0103 -0.0112 -0.0473
    1DIPC   GL1 7959   9.134  29.537   6.754 -0.1473  0.0115  0.5049
    1DIPC   GL2 7960   8.909  29.602   6.531 -0.0485  0.0771  0.1145
    1DIPC   C1A 7961   9.250  29.333   6.281  0.0031  0.0048 -0.1009
    1DIPC   D2A 7962   9.078  29.051   6.026  0.3901  0.0042  0.1211
    1DIPC   D3A 7963   8.954  28.933   5.594  0.0627 -0.2244  0.1747
    1DIPC   C4A 7964   9.211  29.003   5.314 -0.0502 -0.0228 -0.3333
    1DIPC   C1B 7965   8.937  29.749   6.156 -0.2636 -0.0737 -0.1785
    1DIPC   D2B 7966   9.072  30.097   5.831 -0.1383 -0.1645  0.1246
    1DIPC   D3B 7967   8.837  29.910   5.528 -0.1990 -0.0452  0.0766
    1DIPC   C4B 7968   8.956  29.786   5.136 -0.1681 -0.1119  0.2464
    1DIPC   NC3 7969  23.848  26.120   6.898 -0.0164  0.0715  0.0714
    1DIPC   PO4 7970  23.805  25.705   6.704  0.0418  0.1992 -0.1263
    1DIPC   GL1 7971  23.723  25.730   6.216  0.0315 -0.0284 -0.0992
    1DIPC   GL2 7972  23.811  26.036   6.020 -0.0405 -0.1351  0.2429
    1DIPC   C1A 7973  24.047  25.577   5.857  0.3223  0.2917 -0.0584
    1DIPC   D2A 7974  24.060  25.467   5.451  0.0576  0.3490  0.1582
    1DIPC   D3A 7975  23.634  25.623   5.256  0.0848 -0.0015 -0.0627
    1DIPC   C4A 7976  23.433  25.368   5.008  0.1322  0.0611  0.2721
    1DIPC   C1B 7977  23.616  26.396   6.073 -0.0453  0.2628  0.1300
    1DIPC   D2B 7978  23.230  26.491   5.944  0.0866  0.0717  0.0027
    1DIPC   D3B 7979  22.917  26.799   6.107  0.2840 -0.0758 -0.2662
    1DIPC   C4B 7980  22.807  27.221   5.978  0.1356 -0.0451 -0.0608
    1DIPC   NC3 7981  20.401  28.093   7.293 -0.2044  0.1016  0.0526
    1DIPC   PO4 7982  20.726  28.247   7.134  0.0918 -0.0252  0.0440
    1DIPC   GL1 7983  20.383  28.242   6.811  0.1346 -0.2796  0.0025
    1DIPC   GL2 7984  20.265  28.514   6.723 -0.0772 -0.0448 -0.1614
    1DIPC   C1A 7985  20.315  28.038   6.520  0.2381 -0.1323 -0.3098
    1DIPC   D2A 7986  20.025  27.655   6.604  0.1434 -0.2461 -0.3852
    1DIPC   D3A 7987  20.174  27.715   6.145 -0.0776  0.0177  0.2413
    1DIPC   C4A 7988  20.518  28.007   6.070  0.1341 -0.3195 -0.1899
    1DIPC   C1B 7989  20.255  28.438   6.181  0.2750  0.0850  0.1517
    1DIPC   D2B 7990  20.285  28.493   5.657 -0.2332 -0.1153 -0.0494
    1DIPC   D3B 7991  20.237  28.698   5.390  0.2918 -0.2463 -0.2175
    1DIPC   C4B 7992  20.086  28.774   5.025  0.3000  0.0038 -0.2113
    1DIPC   NC3 7993   6.366  16.040   6.490 -0.1267  0.0557 -0.0472
    1DIPC   PO4 7994   6.397  15.614   6.143  0.0807 -0.1585  0.2031
    1DIPC   GL1 7995   6.508  15.401   5.660  0.3176 -0.1328 -0.0147
    1DIPC   GL2 7996   6.226  15.354   5.540  0.3119 -0.0054 -0.2081
    1DIPC   C1A 7997   6.664  15.355   5.202  0.1651 -0.0495 -0.1609
    1DIPC   D2A 7998   6.876  15.033   4.945  0.0328  0.1226 -0.2831
    1DIPC   D3A 7999   6.848  14.674   4.710  0.5185 -0.0276 -0.3396
    1DIPC   C4A 8000   6.481  14.530   4.645 -0.0118 -0.1872  0.0819
    1DIPC   C1B 8001   6.201  15.155   5.152 -0.1592 -0.1382 -0.0095
    1DIPC   D2B 8002   6.443  15.077   4.694 -0.3921  0.0217 -0.0004
    1DIPC   D3B 8003   6.132  14.834   4.831 -0.0362  0.1440  0.1734
    1DIPC   C4B 8004   5.716  14.849   4.958 -0.0037  0.0391  0.2597
    1DIPC   NC3 8005  12.290  20.384   6.400  0.3549  0.2577 -0.0839
    1DIPC   PO4 8006  11.849  20.097   6.570 -0.0973 -0.2656  0.2926
    1DIPC   GL1 8007  11.888  20.187   6.236 -0.0828 -0.1758  0.1116
    1DIPC   GL2 8008  12.092  20.050   6.024  0.0791  0.1841  0.4526
    1DIPC   C1A 8009  11.771  20.406   5.885  0.0147  0.0801 -0.1176
    1DIPC   D2A 8010  11.462  20.602   5.605  0.3698 -0.2091  0.0017
    1DIPC   D3A 8011  11.042  20.385   5.755 -0.0513  0.1073  0.0457
    1DIPC   C4A 8012  10.983  19.969   5.725 -0.0596 -0.2364  0.0150
    1DIPC   C1B 8013  11.965  19.999   5.589 -0.1411 -0.2472 -0.0689
    1DIPC   D2B 8014  11.973  19.747   5.198 -0.0170  0.2682  0.3426
    1DIPC   D3B 8015  12.051  19.996   4.893 -0.1473 -0.0165  0.0500
    1DIPC   C4B 8016  11.995  20.312   4.569 -0.3109 -0.1749  0.0803
    1DIPC   NC3 8017  11.531  23.574   6.461  0.0957 -0.3201 -0.2829
    1DIPC   PO4 8018  11.232  23.627   6.086  0.1155 -0.2475 -0.0823
    1DIPC   GL1 8019  11.559  23.784   5.918  0.2205  0.0027  0.1666
    1DIPC   GL2 8020  11.651  24.110   5.807 -0.1759 -0.0584  0.4385
    1DIPC   C1A 8021  11.819  23.639   5.496 -0.1584  0.0894  0.3150
    1DIPC   D2A 8022  11.630  23.397   5.125  0.2749  0.1370 -0.2917
    1DIPC   D3A 8023  11.259  23.281   5.123  0.0837 -0.0212  0.1506
    1DIPC   C4A 8024  11.027  23.255   4.726 -0.0634 -0.0832 -0.2131
    1DIPC   C1B 8025  11.440  24.027   5.438  0.1344 -0.0921  0.2169
    1DIPC   D2B 8026  11.176  23.782   5.162  0.2748  0.3055 -0.4353
    1DIPC   D3B 8027  10.955  23.998   4.793  0.2696  0.0952 -0.0008
    1DIPC   C4B 8028  10.579  23.952   4.655  0.2085 -0.0155 -0.4143
    1DIPC   NC3 8029   6.694   8.172   7.389  0.1283 -0.0949 -0.1622
    1DIPC   PO4 8030   6.485   7.941   7.129 -0.4028  0.0627  0.3383
    1DIPC   GL1 8031   6.655   8.107   6.719  0.2192 -0.0749  0.0763
    1DIPC   GL2 8032   6.364   8.057   6.567  0.1487 -0.2089 -0.0175
    1DIPC   C1A 8033   6.617   8.492   6.540 -0.1772 -0.0692  0.1244
    1DIPC   D2A 8034   6.664   8.944   6.497  0.1317 -0.1926 -0.1322
    1DIPC   D3A 8035   6.969   8.818   6.196 -0.2229  0.0411  0.1470
    1DIPC   C4A 8036   6.892   8.459   6.140  0.2933 -0.0935 -0.0002
    1DIPC   C1B 8037   6.537   8.052   6.186 -0.1806  0.0308  0.1772
    1DIPC   D2B 8038   6.830   8.061   5.797  0.0938  0.0542 -0.0709
    1DIPC   D3B 8039   6.409   8.008   5.529 -0.0555  0.0124 -0.1305
    1DIPC   C4B 8040   6.244   8.445   5.363  0.1161  0.2873 -0.3332
    1DIPC   NC3 8041   8.091  12.700   6.980 -0.1101  0.0948  0.3241
    1DIPC   PO4 8042   7.956  12.886   6.542  0.1086  0.0071 -0.2528
    1DIPC   GL1 8043   7.985  13.074   6.123  0.0668 -0.1318  0.2011
    1DIPC   GL2 8044   7.795  13.214   5.966 -0.0279 -0.0713  0.1539
    1DIPC   C1A 8045   8.129  12.923   5.657 -0.2227 -0.2700  0.0343
    1DIPC   D2A 8046   8.134  12.848   5.148 -0.0316 -0.3429  0.1170
    1DIPC   D3A 8047   8.285  12.953   4.721 -0.0427  0.2634 -0.0673
    1DIPC   C4A 8048   8.542  13.225   4.551 -0.1079 -0.1117 -0.2686
    1DIPC   C1B 8049   7.636  12.856   5.874 -0.0934 -0.0360  0.1207
    1DIPC   D2B 8050   7.492  12.417   5.681 -0.2624  0.1307  0.0329
    1DIPC   D3B 8051   7.044  12.247   5.471 -0.0935  0.1677 -0.0908
    1DIPC   C4B 8052   6.870  11.842   5.566  0.0943  0.3952 -0.0801
    1DIPC   NC3 8053  20.144   0.288   6.830  0.2532 -0.2198 -0.4486
    1DIPC   PO4 8054  20.050   0.775   6.953 -0.1061 -0.0195 -0.0484
    1DIPC   GL1 8055  19.984   0.651   6.512  0.1956  0.1234  0.0492
    1DIPC   GL2 8056  19.907   0.830   6.192  0.0468  0.1219 -0.2989
    1DIPC   C1A 8057  20.266   0.462   6.216 -0.0124 -0.0824 -0.1774
    1DIPC   D2A 8058  20.432   0.114   6.398  0.1106  0.0819  0.0583
    1DIPC   D3A 8059  20.259  -0.269   6.178 -0.1031  0.1063  0.0424
    1DIPC   C4A 8060  19.940  -0.486   6.154  0.1476  0.1866  0.0918
    1DIPC   C1B 8061  20.015   0.957   5.769 -0.0801  0.3222  0.0165
    1DIPC   D2B 8062  19.993   1.327   5.446  0.1739 -0.1284  0.1650
    1DIPC   D3B 8063  20.041   1.064   5.186  0.0277 -0.1339  0.0607
    1DIPC   C4B 8064  19.726   1.179   4.922  0.0515  0.0825 -0.0151
    1DIPC   NC3 8065   6.960  27.332   6.889 -0.1263 -0.0071 -0.0334
    1DIPC   PO4 8066   6.712  27.409   6.505  0.4445 -0.2001  0.2724
    1DIPC   GL1 8067   6.400  27.245   6.256 -0.2199 -0.4060 -0.2241
    1DIPC   GL2 8068   6.204  26.975   6.371  0.1523 -0.1623 -0.2619
    1DIPC   C1A 8069   6.125  27.219   5.867 -0.0627  0.2478  0.2466
    1DIPC   D2A 8070   5.907  27.524   5.681 -0.1714 -0.1030 -0.0360
    1DIPC   D3A 8071   5.885  27.334   5.096 -0.1558 -0.3304 -0.0146
    1DIPC   C4A 8072   5.984  27.572   4.724  0.1157  0.0238 -0.3020
    1DIPC   C1B 8073   6.225  26.696   5.949  0.0913  0.2115  0.1004
    1DIPC   D2B 8074   5.949  26.607   5.579  0.0772 -0.2187 -0.0743
    1DIPC   D3B 8075   5.786  26.985   5.431  0.2278  0.0444  0.3545
    1DIPC   C4B 8076   5.346  27.218   5.609  0.0646  0.3152  0.1832
    1DIPC   NC3 8077   5.288  16.212   5.789 -0.0933  0.1864  0.0830
    1DIPC   PO4 8078   5.439  15.677   5.773 -0.0226 -0.0277  0.0209
    1DIPC   GL1 8079   5.216  15.779   5.461  0.0629  0.2543  0.0090
    1DIPC   GL2 8080   5.180  16.143   5.340  0.1839 -0.1920  0.2328
    1DIPC   C1A 8081   5.410  15.802   5.026 -0.0740 -0.2149  0.0282
    1DIPC   D2A 8082   5.267  15.851   4.607 -0.2561 -0.0140  0.0263
    1DIPC   D3A 8083   5.464  16.265   4.554 -0.0122 -0.0671  0.1432
    1DIPC   C4A 8084   5.891  16.367   4.383  0.1340  0.0542 -0.0296
    1DIPC   C1B 8085   5.088  16.159   4.933 -0.1071  0.0875 -0.0266
    1DIPC   D2B 8086   4.947  16.231   4.539  0.2258 -0.1908  0.2817
    1DIPC   D3B 8087   4.814  16.438   4.279  0.0098 -0.0858 -0.1879
    1DIPC   C4B 8088   4.420  16.280   3.980  0.0920 -0.0371 -0.1478
    1DIPC   NC3 8089  28.575   9.318   6.510 -0.0518 -0.3468  0.0920
    1DIPC   PO4 8090  28.587   8.956   6.771  0.4205 -0.1101 -0.3442
    1DIPC   GL1 8091  28.643   8.792   6.367  0.0017 -0.1021  0.2229
    1DIPC   GL2 8092  28.801   8.855   6.096  0.0690  0.3014 -0.1112
    1DIPC   C1A 8093  28.306   8.779   5.959  0.1537  0.3812 -0.1604
    1DIPC   D2A 8094  28.023   9.039   5.689  0.1147  0.1963  0.0893
    1DIPC   D3A 8095  27.605   9.175   5.660 -0.1539  0.2020  0.0516
    1DIPC   C4A 8096  27.393   8.932   5.295 -0.4582 -0.1062 -0.5692
    1DIPC   C1B 8097  29.056   8.523   5.827 -0.2219 -0.1938  0.0444
    1DIPC   D2B 8098  29.104   8.222   5.495  0.0353  0.1113  0.1107
    1DIPC   D3B 8099  29.314   7.858   5.821 -0.0505  0.1682  0.0453
    1DIPC   C4B 8100  29.483   7.476   5.694 -0.2767  0.0061  0.2142
    1DIPC   NC3 8101  18.681  24.656   7.153  0.1084  0.1609  0.0861
    1DIPC   PO4 8102  18.588  24.209   7.189 -0.0772  0.1899  0.2112
    1DIPC   GL1 8103  18.644  24.275   6.804 -0.2262  0.2186  0.0742
    1DIPC   GL2 8104  18.321  24.312   6.697 -0.0331 -0.0124 -0.0563
    1DIPC   C1A 8105  18.739  24.255   6.335 -0.2797 -0.0945 -0.0791
    1DIPC   D2A 8106  18.531  24.158   5.947 -0.4106  0.1372  0.0514
    1DIPC   D3A 8107  18.810  24.344   5.773 -0.3312 -0.0906 -0.0374
    1DIPC   C4A 8108  19.070  24.625   5.927 -0.1262  0.3011 -0.1228
    1DIPC   C1B 8109  18.187  24.302   6.298  0.1768 -0.2170 -0.3362
    1DIPC   D2B 8110  17.769  24.368   6.148 -0.1826 -0.1647 -0.1333
    1DIPC   D3B 8111  17.993  24.750   6.113 -0.0776  0.4555 -0.0960
    1DIPC   C4B 8112  18.072  24.961   5.750 -0.1229 -0.0723  0.2237
    1DIPC   NC3 8113  17.477   1.496   6.877  0.0623 -0.3173  0.0152
    1DIPC   PO4 8114  17.691   1.179   6.646  0.1391 -0.0698  0.0978
    1DIPC   GL1 8115  17.737   1.355   6.217 -0.1144 -0.1282 -0.3059
    1DIPC   GL2 8116  17.766   1.295   5.966 -0.0801  0.0131  0.1735
    1DIPC   C1A 8117  17.779   1.774   5.960 -0.0918 -0.1678 -0.1452
    1DIPC   D2A 8118  17.745   2.198   5.790 -0.0727  0.0120 -0.0967
    1DIPC   D3A 8119  17.565   2.672   5.937  0.2483 -0.0692  0.2345
    1DIPC   C4A 8120  17.590   3.051   5.798 -0.0022 -0.2482  0.2604
    1DIPC   C1B 8121  17.816   1.381   5.536  0.1311 -0.1477  0.3161
    1DIPC   D2B 8122  17.584   1.366   5.119  0.1390 -0.0010  0.0288
    1DIPC   D3B 8123  18.026   1.243   4.946 -0.2751 -0.1255 -0.0213
    1DIPC   C4B 8124  17.996   1.107   4.489  0.0170 -0.1664 -0.2027
    1DIPC   NC3 8125  28.700  22.882   6.057  0.0725 -0.2121 -0.3120
    1DIPC   PO4 8126  28.721  22.464   6.110  0.0053  0.1719 -0.1914
    1DIPC   GL1 8127  28.432  22.489   5.717 -0.1234  0.0484 -0.3809
    1DIPC   GL2 8128  28.408  22.256   5.574 -0.0945 -0.0659 -0.0117
    1DIPC   C1A 8129  28.271  22.731   5.378 -0.1469 -0.2882  0.0814
    1DIPC   D2A 8130  28.211  23.148   5.203 -0.1272 -0.1416  0.0910
    1DIPC   D3A 8131  28.249  22.909   4.798  0.1916  0.0484  0.1557
    1DIPC   C4A 8132  28.039  22.634   4.594  0.0642 -0.0975  0.1423
    1DIPC   C1B 8133  28.763  22.287   5.348 -0.1225  0.2873  0.0623
    1DIPC   D2B 8134  28.912  22.451   5.034  0.1032 -0.1789  0.1545
    1DIPC   D3B 8135  28.777  22.073   4.827 -0.1068  0.0300 -0.1161
    1DIPC   C4B 8136  28.977  21.814   5.093 -0.1802  0.1973 -0.2147
    1DIPC   NC3 8137  20.474   2.306   6.371  0.0637 -0.0463  0.0600
    1DIPC   PO4 8138  20.229   2.042   6.673  0.0270 -0.0260 -0.0036
    1DIPC   GL1 8139  20.141   1.843   6.210  0.0227  0.2662  0.1099
    1DIPC   GL2 8140  20.096   2.070   6.023  0.0802  0.2004 -0.1652
    1DIPC   C1A 8141  20.209   1.725   5.730 -0.3228 -0.1625  0.0811
    1DIPC   D2A 8142  20.306   2.032   5.512  0.1531  0.0312  0.2646
    1DIPC   D3A 8143  20.003   1.773   5.160 -0.1145 -0.0699 -0.0143
    1DIPC   C4A 8144  20.084   1.494   4.892 -0.1891 -0.4581 -0.0109
    1DIPC   C1B 8145  19.958   2.337   5.610 -0.1171 -0.4160 -0.0689
    1DIPC   D2B 8146  19.634   2.583   5.414 -0.0969  0.0551 -0.0374
    1DIPC   D3B 8147  19.925   2.931   5.503  0.1624  0.0614  0.1382
    1DIPC   C4B 8148  20.076   3.027   5.169 -0.1389  0.1266 -0.4213
    1DIPC   NC3 8149   2.968  17.192   6.532 -0.0406 -0.1333 -0.0531
    1DIPC   PO4 8150   2.662  17.161   6.248 -0.3138 -0.1247 -0.0524
    1DIPC   GL1 8151   2.768  17.106   5.819 -0.0308 -0.0569  0.2112
    1DIPC   GL2 8152   2.859  16.923   5.685  0.3604  0.0430  0.2274
    1DIPC   C1A 8153   2.761  17.272   5.368  0.3876  0.2027  0.4488
    1DIPC   D2A 8154   2.887  17.147   4.879  0.0789 -0.2604 -0.4976
    1DIPC   D3A 8155   2.450  17.274   4.974 -0.2120  0.1280 -0.1341
    1DIPC   C4A 8156   2.222  16.964   5.292  0.0604 -0.0027  0.0691
    1DIPC   C1B 8157   2.646  16.706   5.222  0.0952  0.1084  0.3437
    1DIPC   D2B 8158   2.370  16.484   4.934 -0.1634  0.2082 -0.1275
    1DIPC   D3B 8159   2.664  16.346   4.695 -0.1186  0.1962  0.1197
    1DIPC   C4B 8160   2.565  15.951   4.733  0.0916  0.2380  0.0187
    1DIPC   NC3 8161  27.389   7.249   6.437 -0.0028  0.1311 -0.0079
    1DIPC   PO4 8162  27.657   6.844   6.333 -0.2066  0.2567  0.0060
    1DIPC   GL1 8163  27.376   6.981   5.966 -0.0547 -0.2487 -0.2040
    1DIPC   GL2 8164  27.073   6.952   5.995 -0.0579  0.0375 -0.0802
    1DIPC   C1A 8165  27.340   7.255   5.581 -0.1616  0.2656  0.3345
    1DIPC   D2A 8166  27.169   7.093   5.157  0.2127 -0.0001  0.1092
    1DIPC   D3A 8167  26.840   7.378   5.129 -0.0103  0.0857 -0.1793
    1DIPC   C4A 8168  26.742   7.712   4.839  0.0669  0.1091  0.1368
    1DIPC   C1B 8169  27.127   6.517   6.032  0.1349  0.0242  0.0187
    1DIPC   D2B 8170  27.400   6.126   6.022  0.2788 -0.0540 -0.1283
    1DIPC   D3B 8171  27.412   5.765   5.776 -0.1190 -0.4985 -0.1341
    1DIPC   C4B 8172  27.315   5.860   5.269  0.4668  0.0514 -0.4451
    1DIPC   NC3 8173  20.782  23.666   7.299 -0.2271  0.0774 -0.0305
    1DIPC   PO4 8174  20.997  23.976   7.026 -0.1905 -0.2552 -0.1276
    1DIPC   GL1 8175  20.922  23.952   6.604 -0.0837 -0.2120 -0.3952
    1DIPC   GL2 8176  20.773  24.232   6.311 -0.2751  0.0610 -0.1429
    1DIPC   C1A 8177  20.581  23.752   6.270 -0.0468  0.2210  0.1331
    1DIPC   D2A 8178  20.490  23.316   6.345 -0.3808 -0.2298  0.0427
    1DIPC   D3A 8179  20.219  22.931   6.232  0.0944  0.3133 -0.0767
    1DIPC   C4A 8180  19.749  22.907   6.252 -0.0852  0.3331  0.0075
    1DIPC   C1B 8181  20.631  24.076   5.893  0.1395  0.1211 -0.1942
    1DIPC   D2B 8182  20.861  23.825   5.568 -0.0704 -0.1829  0.1051
    1DIPC   D3B 8183  21.323  23.949   5.358  0.0848 -0.3259 -0.3169
    1DIPC   C4B 8184  21.831  23.976   5.541 -0.1545  0.2309  0.4131
    1DIPC   NC3 8185  24.962  22.360   6.703 -0.1156 -0.0162  0.0708
    1DIPC   PO4 8186  24.589  22.174   6.604  0.1186  0.1081 -0.2058
    1DIPC   GL1 8187  24.778  22.308   6.144  0.3914  0.1883 -0.0745
    1DIPC   GL2 8188  24.694  22.656   6.199  0.2048  0.1941 -0.1349
    1DIPC   C1A 8189  24.644  22.343   5.758  0.0014  0.0231 -0.1631
    1DIPC   D2A 8190  24.676  22.618   5.443 -0.0296 -0.0198 -0.2675
    1DIPC   D3A 8191  24.426  22.954   5.658 -0.1133  0.1162  0.0862
    1DIPC   C4A 8192  24.188  22.990   6.014  0.2542 -0.0542  0.0222
    1DIPC   C1B 8193  24.853  23.072   5.912  0.0872 -0.1270 -0.0937
    1DIPC   D2B 8194  24.950  23.053   5.536 -0.2683  0.0016  0.2169
    1DIPC   D3B 8195  25.176  23.191   5.261  0.0266  0.1575 -0.0067
    1DIPC   C4B 8196  25.243  23.019   4.818  0.1411 -0.0537  0.0107
    1DIPC   NC3 8197   1.889  27.485   6.690  0.3308 -0.2453  0.0403
    1DIPC   PO4 8198   1.547  27.517   6.487  0.0993  0.0595  0.1522
    1DIPC   GL1 8199   1.604  27.623   6.127  0.2567  0.1975  0.0166
    1DIPC   GL2 8200   1.576  27.310   5.972  0.0816  0.0045  0.0699
    1DIPC   C1A 8201   1.641  27.753   5.803  0.3533 -0.2599 -0.2084
    1DIPC   D2A 8202   1.535  27.766   5.450 -0.1998 -0.0881  0.1478
    1DIPC   D3A 8203   1.916  27.712   5.333  0.0693  0.0757  0.4075
    1DIPC   C4A 8204   2.011  27.475   4.947  0.3666  0.3485 -0.3657
    1DIPC   C1B 8205   1.419  27.302   5.625 -0.0095  0.0971  0.1319
    1DIPC   D2B 8206   1.659  27.178   5.310  0.0312  0.0281 -0.0864
    1DIPC   D3B 8207   1.527  27.441   5.073  0.1464  0.0429 -0.1237
    1DIPC   C4B 8208   1.594  27.285   4.755  0.2640 -0.0405  0.3845
    1DIPC   NC3 8209  23.426  10.193   6.262 -0.0153  0.0626 -0.0593
    1DIPC   PO4 8210  23.587   9.779   6.264  0.0832  0.0854 -0.1536
    1DIPC   GL1 8211  23.755  10.033   5.836  0.1329 -0.0873  0.1110
    1DIPC   GL2 8212  23.541  10.237   5.747 -0.5295  0.1882  0.0210
    1DIPC   C1A 8213  23.638   9.818   5.429 -0.2712  0.1561 -0.0786
    1DIPC   D2A 8214  23.419   9.827   5.032  0.2921 -0.0572 -0.3500
    1DIPC   D3A 8215  23.710  10.073   4.947  0.2703 -0.3117 -0.0680
    1DIPC   C4A 8216  23.854  10.239   5.304  0.2437  0.0839  0.0125
    1DIPC   C1B 8217  23.282  10.203   5.430 -0.0062  0.2008 -0.1217
    1DIPC   D2B 8218  23.188  10.269   5.034 -0.0338 -0.5615 -0.0177
    1DIPC   D3B 8219  22.984  10.230   4.658 -0.1724  0.1418 -0.3005
    1DIPC   C4B 8220  22.616  10.278   4.482 -0.0119 -0.0414 -0.2902
    1DIPC   NC3 8221  13.005  22.636   6.089  0.0041 -0.0530 -0.1894
    1DIPC   PO4 8222  12.820  22.196   5.906 -0.0836 -0.1770  0.0707
    1DIPC   GL1 8223  13.095  22.061   5.537 -0.0881  0.0020 -0.2532
    1DIPC   GL2 8224  13.395  21.896   5.614 -0.0776  0.2240 -0.1433
    1DIPC   C1A 8225  13.117  21.892   5.090 -0.2486 -0.2177  0.0663
    1DIPC   D2A 8226  13.442  21.714   4.976  0.2823  0.0648  0.1742
    1DIPC   D3A 8227  13.201  21.306   5.112  0.0001  0.1142 -0.1072
    1DIPC   C4A 8228  13.094  21.465   5.470  0.0640  0.3942 -0.1386
    1DIPC   C1B 8229  13.696  22.165   5.489 -0.0666 -0.0568  0.2854
    1DIPC   D2B 8230  14.066  22.348   5.442 -0.0772 -0.0245 -0.3180
    1DIPC   D3B 8231  14.064  22.370   5.008  0.2523  0.1356  0.0628
    1DIPC   C4B 8232  14.066  22.820   4.837  0.3748 -0.1452 -0.2016
    1DIPC   NC3 8233  28.221  18.435   6.418  0.0424  0.0137  0.1918
    1DIPC   PO4 8234  28.533  18.652   6.357  0.0375  0.1625 -0.1886
    1DIPC   GL1 8235  28.401  18.602   5.960  0.0467 -0.1011 -0.0602
    1DIPC   GL2 8236  28.390  18.933   5.897  0.0320  0.0200 -0.0765
    1DIPC   C1A 8237  28.338  18.574   5.541  0.3729  0.1140  0.2559
    1DIPC   D2A 8238  28.149  18.368   5.142 -0.0705 -0.0232 -0.0130
    1DIPC   D3A 8239  27.946  18.430   4.726 -0.2247 -0.1622 -0.2367
    1DIPC   C4A 8240  28.142  18.450   4.495  0.2317  0.5053  0.3488
    1DIPC   C1B 8241  27.995  19.063   5.601  0.2525  0.0757 -0.0832
    1DIPC   D2B 8242  27.859  18.779   5.211 -0.0278  0.0315  0.2501
    1DIPC   D3B 8243  28.138  18.882   4.849  0.1488  0.4104  0.0017
    1DIPC   C4B 8244  28.359  19.208   4.691  0.0051  0.0035 -0.2881
    1DIPC   NC3 8245   1.667  10.499   6.318 -0.1002  0.0143 -0.0202
    1DIPC   PO4 8246   1.674  10.016   6.270  0.2071  0.1499 -0.1763
    1DIPC   GL1 8247   1.619   9.999   5.858 -0.1259 -0.1855 -0.0840
    1DIPC   GL2 8248   1.375  10.215   5.879 -0.0057  0.0361  0.3297
    1DIPC   C1A 8249   1.690   9.808   5.463 -0.2151  0.1022  0.1040
    1DIPC   D2A 8250   1.554   9.738   5.089  0.0341  0.5287 -0.0172
    1DIPC   D3A 8251   1.574   9.250   5.163 -0.1592 -0.0555  0.0969
    1DIPC   C4A 8252   2.002   9.144   4.872 -0.1105 -0.1624  0.0094
    1DIPC   C1B 8253   1.446  10.297   5.409 -0.4446  0.0411 -0.0520
    1DIPC   D2B 8254   1.491  10.368   4.961  0.1692 -0.1115 -0.4029
    1DIPC   D3B 8255   1.869  10.199   5.139 -0.1213  0.0751  0.2122
    1DIPC   C4B 8256   1.979  10.234   5.578  0.1855 -0.2263 -0.2341
    1DIPC   NC3 8257   3.886  15.767   6.546 -0.0070  0.2274  0.1312
    1DIPC   PO4 8258   4.094  15.700   6.204  0.0062  0.1003 -0.1671
    1DIPC   GL1 8259   4.242  15.698   5.717  0.0923 -0.2729  0.1868
    1DIPC   GL2 8260   4.287  15.997   5.660  0.1215 -0.1095  0.1747
    1DIPC   C1A 8261   4.083  15.566   5.401 -0.0741 -0.0129 -0.0250
    1DIPC   D2A 8262   3.973  15.365   4.921 -0.1550  0.0443 -0.1190
    1DIPC   D3A 8263   4.086  15.610   4.603 -0.0194 -0.1906 -0.3681
    1DIPC   C4A 8264   3.785  15.715   4.399  0.1098  0.3144 -0.0886
    1DIPC   C1B 8265   4.199  16.067   5.339 -0.0037  0.2237  0.0501
    1DIPC   D2B 8266   4.040  16.045   4.936  0.1047 -0.0601  0.0013
    1DIPC   D3B 8267   4.456  15.990   4.739  0.0632 -0.0316 -0.2015
    1DIPC   C4B 8268   4.663  16.160   5.144 -0.1242  0.0522 -0.1158
    1DIPC   NC3 8269   9.284   6.292   7.094  0.1135  0.2823 -0.1088
    1DIPC   PO4 8270   9.452   6.634   7.249 -0.0320 -0.3539  0.1129
    1DIPC   GL1 8271   9.610   6.870   6.850 -0.1305 -0.0363  0.1529
    1DIPC   GL2 8272   9.599   6.687   6.681  0.3430  0.2466  0.5214
    1DIPC   C1A 8273  10.009   6.975   6.765 -0.1517  0.2450 -0.0596
    1DIPC   D2A 8274  10.344   6.979   6.458 -0.3045  0.0472  0.1300
    1DIPC   D3A 8275  10.575   6.689   6.355 -0.2515 -0.0140 -0.0795
    1DIPC   C4A 8276  10.668   6.587   5.999  0.0606 -0.1297 -0.0546
    1DIPC   C1B 8277   9.784   6.916   6.323 -0.1511 -0.1866  0.3803
    1DIPC   D2B 8278   9.661   6.836   5.887  0.2765  0.2221  0.2018
    1DIPC   D3B 8279   9.995   7.129   5.673  0.1933 -0.0150 -0.2443
    1DIPC   C4B 8280   9.949   7.317   5.300 -0.0005  0.0287  0.1159
    1DIPC   NC3 8281  28.490  28.434   6.595  0.1930  0.3004 -0.2489
    1DIPC   PO4 8282  28.091  28.284   6.642  0.2363  0.1077 -0.0068
    1DIPC   GL1 8283  27.953  28.216   6.273  0.0761 -0.0494 -0.2220
    1DIPC   GL2 8284  27.916  28.544   6.175 -0.1165 -0.0251 -0.1885
    1DIPC   C1A 8285  28.098  28.054   5.902 -0.2422  0.1550 -0.0269
    1DIPC   D2A 8286  28.364  28.098   5.590  0.1537  0.1969 -0.0046
    1DIPC   D3A 8287  28.636  27.908   5.878  0.0498 -0.0885 -0.1291
    1DIPC   C4A 8288  29.039  28.076   6.006  0.0330  0.0256  0.0614
    1DIPC   C1B 8289  28.269  28.543   5.963  0.0192 -0.0182 -0.0735
    1DIPC   D2B 8290  28.481  28.794   5.670  0.0095  0.0221  0.1964
    1DIPC   D3B 8291  28.387  28.500   5.352  0.0810 -0.1071 -0.0024
    1DIPC   C4B 8292  28.003  28.565   5.122  0.0069  0.0803 -0.1450
    1DIPC   NC3 8293  16.538  27.559   7.337  0.0736  0.1499 -0.0521
    1DIPC   PO4 8294  16.167  27.645   7.220 -0.0869 -0.3121  0.0102
    1DIPC   GL1 8295  16.344  27.605   6.772 -0.0688  0.1247 -0.1159
    1DIPC   GL2 8296  16.502  27.915   6.603  0.0066  0.0512 -0.0997
    1DIPC   C1A 8297  16.288  27.421   6.399  0.1581  0.2743 -0.0163
    1DIPC   D2A 8298  16.104  27.285   6.038  0.0867  0.1368  0.0571
    1DIPC   D3A 8299  16.053  27.173   5.627  0.1316 -0.1627  0.1939
    1DIPC   C4A 8300  16.348  27.298   5.354  0.2282 -0.0932 -0.0670
    1DIPC   C1B 8301  16.542  27.843   6.105 -0.2820  0.0029 -0.1927
    1DIPC   D2B 8302  16.574  27.648   5.704 -0.2623  0.0408  0.1164
    1DIPC   D3B 8303  16.614  27.220   5.809 -0.1331 -0.0734 -0.0550
    1DIPC   C4B 8304  16.729  27.299   6.224 -0.2297  0.0694  0.3086
    1DIPC   NC3 8305  26.867  27.266   6.166 -0.1892  0.1316 -0.1807
    1DIPC   PO4 8306  27.171  26.992   6.293 -0.0986 -0.1160 -0.1799
    1DIPC   GL1 8307  27.027  26.920   5.840  0.2698  0.2272  0.1882
    1DIPC   GL2 8308  26.933  26.602   5.918  0.3918 -0.1024 -0.3190
    1DIPC   C1A 8309  26.856  26.973   5.385 -0.1571 -0.0433  0.1761
    1DIPC   D2A 8310  26.600  27.040   5.030 -0.0136  0.1370  0.1518
    1DIPC   D3A 8311  26.811  26.770   4.865  0.1367 -0.1147 -0.0029
    1DIPC   C4A 8312  26.808  26.695   4.413  0.0169  0.2548  0.1456
    1DIPC   C1B 8313  26.877  26.502   5.426  0.0472  0.1666  0.2184
    1DIPC   D2B 8314  26.910  26.249   4.992  0.3270 -0.2152 -0.3553
    1DIPC   D3B 8315  27.164  26.379   4.626 -0.2439 -0.0217 -0.3419
    1DIPC   C4B 8316  27.389  26.648   4.301 -0.2070 -0.0961  0.2580
    1DIPC   NC3 8317  20.620  25.234   7.433 -0.0022  0.0929  0.3253
    1DIPC   PO4 8318  20.793  25.160   6.988  0.1998 -0.0198 -0.0861
    1DIPC   GL1 8319  20.684  25.226   6.570  0.0826  0.1726  0.1266
    1DIPC   GL2 8320  20.930  25.064   6.506 -0.0032  0.0631 -0.2837
    1DIPC   C1A 8321  20.693  25.445   6.232  0.1428  0.2327 -0.1838
    1DIPC   D2A 8322  20.820  25.895   6.217  0.3242  0.0071  0.3786
    1DIPC   D3A 8323  20.810  25.706   5.837  0.0025 -0.0568  0.2055
    1DIPC   C4A 8324  20.440  25.665   5.657  0.0259  0.1035  0.1655
    1DIPC   C1B 8325  21.000  24.842   6.128 -0.1930 -0.0899 -0.0921
    1DIPC   D2B 8326  20.842  24.562   5.908 -0.0371  0.0462  0.0141
    1DIPC   D3B 8327  20.448  24.657   5.628  0.1977 -0.0689  0.3628
    1DIPC   C4B 8328  20.216  24.488   5.148  0.2186  0.0899 -0.3381
    1DIPC   NC3 8329   6.777   1.872   6.918  0.2104  0.1993 -0.0135
    1DIPC   PO4 8330   7.015   1.512   6.994  0.3094 -0.1739  0.0427
    1DIPC   GL1 8331   7.177   1.687   6.671  0.0467 -0.0944  0.0174
    1DIPC   GL2 8332   7.455   1.717   6.579  0.1987 -0.0575  0.1943
    1DIPC   C1A 8333   7.002   2.073   6.322 -0.2174  0.0844 -0.2804
    1DIPC   D2A 8334   6.871   1.999   5.889 -0.2195  0.0363  0.0497
    1DIPC   D3A 8335   7.260   1.958   5.615  0.0344 -0.0378  0.1082
    1DIPC   C4A 8336   7.555   2.012   5.434 -0.0203 -0.0165  0.0035
    1DIPC   C1B 8337   7.565   1.391   6.279 -0.3061  0.0036 -0.0901
    1DIPC   D2B 8338   7.779   1.343   5.882 -0.1326 -0.0918 -0.0457
    1DIPC   D3B 8339   7.806   1.781   5.784  0.2566  0.0424 -0.3327
    1DIPC   C4B 8340   7.927   1.704   5.349  0.0863 -0.1855  0.1523
    1DIPC   NC3 8341   1.224  20.131   5.942  0.0502  0.3184 -0.0855
    1DIPC   PO4 8342   1.596  20.235   5.769  0.0306  0.1043 -0.1804
    1DIPC   GL1 8343   1.686  20.135   5.345  0.0333 -0.1100 -0.0489
    1DIPC   GL2 8344   1.606  19.815   5.278  0.0390 -0.3859 -0.2019
    1DIPC   C1A 8345   1.417  20.356   5.115 -0.1079 -0.0178  0.0608
    1DIPC   D2A 8346   1.357  20.157   4.769 -0.0122  0.0562 -0.1648
    1DIPC   D3A 8347   1.217  19.816   4.950 -0.1415  0.3129  0.2654
    1DIPC   C4A 8348   1.055  19.438   4.633 -0.1107  0.0949  0.0872
    1DIPC   C1B 8349   1.770  19.923   4.894 -0.1731 -0.1899 -0.0702
    1DIPC   D2B 8350   1.690  19.897   4.431 -0.1753  0.0395  0.0282
    1DIPC   D3B 8351   1.595  20.217   4.316 -0.3237  0.1290 -0.2278
    1DIPC   C4B 8352   1.617  20.444   3.912  0.1758 -0.0008  0.2514
    1DIPC   NC3 8353  27.257   1.862   6.535 -0.2191 -0.0886 -0.0924
    1DIPC   PO4 8354  27.692   1.857   6.730  0.1428 -0.3383  0.1512
    1DIPC   GL1 8355  27.837   1.624   6.380 -0.2801 -0.1048  0.0233
    1DIPC   GL2 8356  27.740   1.882   6.176 -0.2231  0.2907  0.1236
    1DIPC   C1A 8357  27.782   1.425   5.965 -0.2098  0.2387 -0.0565
    1DIPC   D2A 8358  27.829   1.473   5.467 -0.3358  0.0052 -0.0220
    1DIPC   D3A 8359  27.765   1.121   5.164 -0.1965 -0.1677 -0.0545
    1DIPC   C4A 8360  27.641   1.248   4.809 -0.2818  0.0224 -0.1428
    1DIPC   C1B 8361  27.976   1.868   5.786 -0.1867  0.0827 -0.0980
    1DIPC   D2B 8362  27.899   2.193   5.462  0.0462 -0.0308 -0.0820
    1DIPC   D3B 8363  28.057   2.471   5.163  0.0556 -0.1235  0.2395
    1DIPC   C4B 8364  27.930   2.215   4.734  0.0052  0.1973  0.0361
    1DIPC   NC3 8365   3.329   4.525   6.662  0.2463 -0.1012  0.3165
    1DIPC   PO4 8366   3.641   4.835   6.792 -0.3247  0.4355  0.0376
    1DIPC   GL1 8367   3.868   4.643   6.481  0.4379 -0.0998 -0.2421
    1DIPC   GL2 8368   4.248   4.513   6.475  0.0977  0.1101 -0.0370
    1DIPC   C1A 8369   3.923   4.650   5.983 -0.1068  0.0564  0.1690
    1DIPC   D2A 8370   3.739   4.380   5.670 -0.1525  0.1753  0.1811
    1DIPC   D3A 8371   4.088   4.551   5.456 -0.0495  0.2070 -0.2125
    1DIPC   C4A 8372   4.106   4.948   5.235 -0.3294  0.0850 -0.0809
    1DIPC   C1B 8373   4.423   4.617   6.019  0.2268  0.1238 -0.1371
    1DIPC   D2B 8374   4.620   4.553   5.670 -0.3524  0.3106  0.1079
    1DIPC   D3B 8375   4.501   4.179   5.870 -0.0672  0.2764 -0.2799
    1DIPC   C4B 8376   4.304   4.115   5.540 -0.0168  0.3814  0.1597
    1DIPC   NC3 8377   6.875  13.582   6.853  0.2442 -0.1829  0.1945
    1DIPC   PO4 8378   7.098  14.049   6.677 -0.5388 -0.0381  0.1106
    1DIPC   GL1 8379   7.120  14.167   6.251 -0.0731 -0.1485  0.0635
    1DIPC   GL2 8380   7.248  14.541   6.172  0.2802 -0.0054 -0.1598
    1DIPC   C1A 8381   6.962  14.051   5.793  0.1887 -0.2602  0.0551
    1DIPC   D2A 8382   6.947  14.066   5.374 -0.2447 -0.2137  0.1239
    1DIPC   D3A 8383   6.706  14.285   5.014 -0.1072 -0.0452  0.2868
    1DIPC   C4A 8384   6.464  14.036   4.633 -0.2050 -0.1530 -0.0848
    1DIPC   C1B 8385   7.054  14.568   5.772  0.1021 -0.0253 -0.0298
    1DIPC   D2B 8386   7.151  14.522   5.324 -0.1946  0.2348  0.0954
    1DIPC   D3B 8387   7.219  14.337   4.988  0.1994  0.1758  0.1504
    1DIPC   C4B 8388   7.089  13.960   4.910  0.3688  0.1090  0.0801
    1DIPC   NC3 8389   0.480  26.201   6.433  0.0540  0.1661 -0.2742
    1DIPC   PO4 8390   0.055  26.191   6.382  0.0225  0.3694 -0.0071
    1DIPC   GL1 8391   0.181  26.453   6.100  0.2749 -0.2423  0.3183
    1DIPC   GL2 8392   0.193  26.256   5.813  0.2043  0.1095  0.2143
    1DIPC   C1A 8393   0.065  26.809   5.789 -0.2985  0.4515 -0.5561
    1DIPC   D2A 8394  -0.237  27.070   5.596  0.1283  0.0754  0.1582
    1DIPC   D3A 8395  -0.443  27.037   5.142 -0.3159  0.0147  0.1941
    1DIPC   C4A 8396  -0.414  26.890   4.727 -0.0243  0.1159 -0.2922
    1DIPC   C1B 8397   0.035  26.557   5.375 -0.0619 -0.2166 -0.1245
    1DIPC   D2B 8398  -0.106  26.624   4.971  0.0722  0.1442  0.0292
    1DIPC   D3B 8399   0.233  26.991   4.847  0.0899 -0.1676  0.1584
    1DIPC   C4B 8400   0.101  27.399   4.650  0.2100  0.0926  0.1324
    1DIPC   NC3 8401  11.899  22.533   6.573  0.1044 -0.0904  0.3115
    1DIPC   PO4 8402  11.993  22.607   6.121 -0.1898  0.2172 -0.1273
    1DIPC   GL1 8403  11.975  22.579   5.618  0.1348  0.3316  0.2568
    1DIPC   GL2 8404  12.327  22.528   5.483  0.1569 -0.0604  0.1945
    1DIPC   C1A 8405  11.845  22.483   5.201 -0.0902  0.0234 -0.0181
    1DIPC   D2A 8406  12.016  22.574   4.807  0.1206 -0.2892 -0.0632
    1DIPC   D3A 8407  11.901  22.835   4.427 -0.0217 -0.3009 -0.1723
    1DIPC   C4A 8408  11.852  22.525   4.160 -0.1399 -0.5282  0.1801
    1DIPC   C1B 8409  12.284  22.836   5.135 -0.1030  0.0714 -0.0166
    1DIPC   D2B 8410  12.098  23.275   4.789  0.1419  0.0543  0.0792
    1DIPC   D3B 8411  12.469  23.105   4.551  0.1637 -0.2018 -0.1029
    1DIPC   C4B 8412  12.382  23.164   4.137  0.2008  0.1425 -0.1638
    1DIPC   NC3 8413  25.158  24.928   7.024  0.0328  0.1186 -0.2872
    1DIPC   PO4 8414  25.360  24.910   6.666 -0.4426 -0.0413  0.2390
    1DIPC   GL1 8415  25.261  24.959   6.268  0.3072 -0.0215  0.0292
    1DIPC   GL2 8416  25.333  25.385   6.149 -0.0971 -0.0400  0.0652
    1DIPC   C1A 8417  25.425  24.965   5.793 -0.0895  0.0612  0.2693
    1DIPC   D2A 8418  25.441  25.227   5.329 -0.0140  0.0712 -0.1099
    1DIPC   D3A 8419  25.242  25.026   4.940  0.0011 -0.0897 -0.0558
    1DIPC   C4A 8420  24.765  24.994   4.885  0.1144 -0.1133 -0.2746
    1DIPC   C1B 8421  25.215  25.431   5.722  0.2906 -0.1045  0.1936
    1DIPC   D2B 8422  25.001  25.739   5.742  0.0800 -0.2542 -0.3307
    1DIPC   D3B 8423  25.125  25.682   5.252  0.2117  0.1533  0.0638
    1DIPC   C4B 8424  25.226  25.884   4.844 -0.1737  0.1001  0.3308
    1DIPC   NC3 8425  18.923   0.005   6.512 -0.1141  0.0682 -0.3033
    1DIPC   PO4 8426  18.656  -0.333   6.574 -0.0924 -0.2912  0.1747
    1DIPC   GL1 8427  18.919  -0.509   6.312 -0.1415 -0.0569  0.0655
    1DIPC   GL2 8428  18.924  -0.334   6.088  0.2138  0.3791 -0.2993
    1DIPC   C1A 8429  18.692  -0.786   6.013 -0.2402  0.0503 -0.3097
    1DIPC   D2A 8430  18.575  -0.794   5.543 -0.0708 -0.1221  0.1775
    1DIPC   D3A 8431  18.321  -1.242   5.279  0.0811 -0.0326 -0.0767
    1DIPC   C4A 8432  18.025  -1.634   5.279  0.0224  0.1875 -0.0007
    1DIPC   C1B 8433  19.023  -0.436   5.762 -0.2630 -0.0783  0.0545
    1DIPC   D2B 8434  19.031  -0.407   5.325 -0.1332  0.0640  0.1617
    1DIPC   D3B 8435  19.238  -0.638   4.973 -0.0517  0.0616  0.3117
    1DIPC   C4B 8436  19.605  -0.861   4.981  0.0300  0.2658 -0.2332
    1DIPC   NC3 8437  14.007   9.950   7.166  0.1788  0.1297 -0.3984
    1DIPC   PO4 8438  13.713   9.757   6.904 -0.1599 -0.0585  0.1170
    1DIPC   GL1 8439  13.450   9.948   6.637 -0.1590  0.0406  0.2085
    1DIPC   GL2 8440  13.221  10.118   6.746 -0.1612 -0.1629  0.0780
    1DIPC   C1A 8441  13.387   9.802   6.268 -0.1254 -0.2075  0.0542
    1DIPC   D2A 8442  13.187   9.925   5.931 -0.1516  0.0024 -0.0941
    1DIPC   D3A 8443  13.080   9.472   6.004 -0.2026 -0.0470 -0.3989
    1DIPC   C4A 8444  12.769   9.320   6.337  0.0866 -0.2393  0.0243
    1DIPC   C1B 8445  13.115  10.246   6.377 -0.0632 -0.0481 -0.2235
    1DIPC   D2B 8446  12.821  10.253   6.018 -0.1470  0.0378  0.2037
    1DIPC   D3B 8447  12.916  10.172   5.629 -0.0540  0.1572  0.3436
    1DIPC   C4B 8448  13.161   9.778   5.473 -0.0749  0.2724 -0.0610
    1DIPC   NC3 8449  21.764   3.663   6.485  0.0537  0.1510 -0.2028
    1DIPC   PO4 8450  21.897   4.073   6.468  0.5061  0.2647 -0.0740
    1DIPC   GL1 8451  21.798   4.202   6.064 -0.0336  0.0271  0.1462
    1DIPC   GL2 8452  21.495   4.411   6.125 -0.1639  0.1122 -0.2332
    1DIPC   C1A 8453  21.409   4.150   5.723  0.0510  0.2274  0.1411
    1DIPC   D2A 8454  21.189   4.499   5.463 -0.1766  0.1589 -0.0184
    1DIPC   D3A 8455  21.349   4.450   5.042  0.1177 -0.2733  0.1341
    1DIPC   C4A 8456  21.510   4.265   4.646 -0.1841 -0.5856  0.4322
    1DIPC   C1B 8457  21.610   4.601   5.716  0.0783  0.0795 -0.1674
    1DIPC   D2B 8458  21.873   4.773   5.435 -0.3325  0.1282 -0.2291
    1DIPC   D3B 8459  21.797   4.445   5.291 -0.1174  0.0274  0.0801
    1DIPC   C4B 8460  21.963   4.343   4.867  0.2075  0.3775 -0.3324
    1DIPC   NC3 8461  25.373  20.568   6.846 -0.0102 -0.1904 -0.0135
    1DIPC   PO4 8462  25.158  20.492   6.626  0.0873  0.2404  0.2249
    1DIPC   GL1 8463  24.897  20.483   6.330  0.4172 -0.1097 -0.1408
    1DIPC   GL2 8464  24.505  20.469   6.317 -0.4555  0.0236  0.2486
    1DIPC   C1A 8465  24.798  20.313   5.951  0.2500 -0.1720 -0.0011
    1DIPC   D2A 8466  24.948  20.187   5.610 -0.0290  0.2889  0.5091
    1DIPC   D3A 8467  24.604  19.899   5.377  0.0210  0.1474 -0.0463
    1DIPC   C4A 8468  24.586  19.986   4.952  0.2773 -0.3311 -0.0195
    1DIPC   C1B 8469  24.370  20.488   5.762 -0.0522 -0.1769 -0.0287
    1DIPC   D2B 8470  24.181  20.644   5.482 -0.1253 -0.1798 -0.2351
    1DIPC   D3B 8471  24.459  20.423   5.275  0.0566  0.0290  0.1553
    1DIPC   C4B 8472  24.419  20.514   4.779 -0.0558 -0.0835  0.3004
    1DIPC   NC3 8473  26.939  21.480   6.445  0.0649  0.0326 -0.0800
    1DIPC   PO4 8474  26.796  21.121   6.324  0.2295  0.1617 -0.2970
    1DIPC   GL1 8475  26.782  21.237   5.900 -0.0796 -0.2209  0.2573
    1DIPC   GL2 8476  26.979  21.394   5.935 -0.0676  0.3816  0.0725
    1DIPC   C1A 8477  26.865  21.264   5.459 -0.1890  0.3499  0.1517
    1DIPC   D2A 8478  26.689  21.177   5.126 -0.2785  0.1479  0.0308
    1DIPC   D3A 8479  26.443  20.994   4.799  0.2885  0.2384 -0.0433
    1DIPC   C4A 8480  26.056  21.142   4.691  0.1302 -0.0659 -0.1629
    1DIPC   C1B 8481  26.652  21.670   5.720 -0.0935  0.1959  0.0953
    1DIPC   D2B 8482  26.293  21.846   5.815  0.0133 -0.1811  0.0797
    1DIPC   D3B 8483  26.243  21.717   5.349 -0.1496  0.0692  0.2801
    1DIPC   C4B 8484  26.044  21.269   5.199 -0.3239  0.0245  0.0772
    1DIPC   NC3 8485  19.893  23.867   7.016 -0.0895  0.1434 -0.1309
    1DIPC   PO4 8486  20.394  23.870   7.047 -0.3023 -0.2199  0.0073
    1DIPC   GL1 8487  20.142  23.959   6.579 -0.0136  0.1070  0.2391
    1DIPC   GL2 8488  20.074  24.294   6.478  0.1550 -0.0245 -0.0592
    1DIPC   C1A 8489  20.115  23.934   6.089  0.0103 -0.0607  0.1062
    1DIPC   D2A 8490  19.797  23.688   5.756  0.0383 -0.0657  0.0310
    1DIPC   D3A 8491  19.805  24.027   5.337 -0.2550 -0.0364 -0.1565
    1DIPC   C4A 8492  19.624  24.470   5.323  0.1064  0.0050  0.1377
    1DIPC   C1B 8493  19.815  24.466   6.078 -0.0681  0.0309  0.2498
    1DIPC   D2B 8494  19.597  24.231   5.815 -0.2831  0.2604  0.1256
    1DIPC   D3B 8495  19.210  24.174   5.982 -0.1734 -0.1246 -0.0736
    1DIPC   C4B 8496  18.944  23.894   5.794  0.2406 -0.3929 -0.1119
    1DIPC   NC3 8497   8.620   6.822   6.619  0.1459 -0.3434 -0.1586
    1DIPC   PO4 8498   8.876   6.548   6.820 -0.0671 -0.0806  0.1516
    1DIPC   GL1 8499   9.097   6.684   6.459  0.0290  0.0727 -0.1913
    1DIPC   GL2 8500   9.209   6.961   6.457 -0.0817  0.2242 -0.1433
    1DIPC   C1A 8501   9.464   6.470   6.202 -0.2096 -0.0218 -0.1607
    1DIPC   D2A 8502   9.833   6.267   5.909 -0.2065 -0.0095  0.2951
    1DIPC   D3A 8503  10.059   6.469   6.167 -0.3519  0.0441 -0.1051
    1DIPC   C4A 8504  10.201   6.823   5.937  0.1078 -0.0970 -0.2495
    1DIPC   C1B 8505   9.343   7.165   6.074  0.0921  0.0033  0.1330
    1DIPC   D2B 8506   9.430   7.230   5.591 -0.0466  0.1694  0.0882
    1DIPC   D3B 8507   9.093   7.020   5.567  0.2474 -0.2947 -0.0901
    1DIPC   C4B 8508   8.994   6.838   6.007 -0.1370 -0.0272  0.3625
    1DIPC   NC3 8509   0.370  25.257   6.729  0.0539 -0.0912 -0.2560
    1DIPC   PO4 8510   0.226  25.387   6.310  0.1540 -0.0110  0.2451
    1DIPC   GL1 8511   0.147  25.440   5.793  0.1340 -0.1701  0.0462
    1DIPC   GL2 8512   0.148  25.793   5.650 -0.4844 -0.1476 -0.0757
    1DIPC   C1A 8513   0.103  25.313   5.373 -0.0058 -0.0400 -0.0100
    1DIPC   D2A 8514   0.083  25.246   4.930  0.0406 -0.0060 -0.1137
    1DIPC   D3A 8515   0.228  24.900   4.708 -0.0653  0.1852  0.3814
    1DIPC   C4A 8516   0.718  24.720   4.636  0.1985  0.2700  0.0463
    1DIPC   C1B 8517   0.229  26.151   5.292 -0.1216  0.1211 -0.1315
    1DIPC   D2B 8518   0.398  26.467   4.962  0.1049  0.1465 -0.1395
    1DIPC   D3B 8519   0.138  26.173   4.784 -0.3216 -0.4075 -0.2238
    1DIPC   C4B 8520  -0.276  26.061   4.911 -0.1686 -0.0276  0.0634
    1DIPC   NC3 8521   8.690  22.603   5.828 -0.3244 -0.0061  0.0875
    1DIPC   PO4 8522   9.058  22.495   5.987 -0.3722  0.1341 -0.0986
    1DIPC   GL1 8523   9.129  22.595   5.550 -0.3345 -0.1326  0.1291
    1DIPC   GL2 8524   9.424  22.744   5.383  0.1225 -0.0897  0.1787
    1DIPC   C1A 8525   8.863  22.462   5.137  0.2896 -0.0565 -0.1542
    1DIPC   D2A 8526   8.798  22.609   4.786  0.3685  0.2045  0.1652
    1DIPC   D3A 8527   8.408  22.637   4.622  0.3849  0.0398  0.0688
    1DIPC   C4A 8528   8.235  22.622   4.352  0.0666  0.1367  0.1548
    1DIPC   C1B 8529   9.149  22.896   5.114 -0.0689  0.2479 -0.2719
    1DIPC   D2B 8530   9.083  23.108   4.723 -0.0134 -0.1001 -0.4007
    1DIPC   D3B 8531   9.031  22.867   4.387 -0.3097 -0.1094 -0.2600
    1DIPC   C4B 8532   8.894  22.468   4.285 -0.3986  0.1067 -0.1187
    1DIPC   NC3 8533  17.004  23.502   6.932 -0.0550  0.2288  0.2314
    1DIPC   PO4 8534  16.721  23.562   6.627  0.4498 -0.1124  0.0466
    1DIPC   GL1 8535  16.938  23.608   6.379  0.0290  0.0060 -0.2784
    1DIPC   GL2 8536  17.246  23.722   6.399 -0.1241 -0.0111 -0.2199
    1DIPC   C1A 8537  17.051  23.663   5.855 -0.2199  0.1002 -0.1047
    1DIPC   D2A 8538  17.193  23.846   5.543 -0.2499 -0.0579  0.2306
    1DIPC   D3A 8539  17.593  23.744   5.777 -0.0769  0.1693 -0.3454
    1DIPC   C4A 8540  17.871  23.801   5.427 -0.1426 -0.2213  0.0396
    1DIPC   C1B 8541  17.612  23.511   6.309  0.1052  0.1549 -0.0422
    1DIPC   D2B 8542  18.058  23.353   6.498 -0.1515  0.1492 -0.2772
    1DIPC   D3B 8543  18.035  23.465   6.084 -0.1512  0.1069  0.1132
    1DIPC   C4B 8544  17.911  23.298   5.724 -0.0158 -0.1637  0.0446
    1DIPC   NC3 8545  23.050  17.350   7.282 -0.0031  0.1335  0.0709
    1DIPC   PO4 8546  22.636  17.133   7.172  0.2499  0.0460 -0.0204
    1DIPC   GL1 8547  22.632  17.157   6.724  0.2855 -0.1391  0.1598
    1DIPC   GL2 8548  22.718  16.935   6.387  0.0816  0.0405 -0.0891
    1DIPC   C1A 8549  22.613  17.548   6.413  0.0037  0.2275 -0.2140
    1DIPC   D2A 8550  22.225  17.810   6.365 -0.1325  0.1051 -0.0403
    1DIPC   D3A 8551  22.181  18.255   6.118  0.2767 -0.2118  0.0037
    1DIPC   C4A 8552  21.936  18.677   6.153  0.1860  0.0302  0.0001
    1DIPC   C1B 8553  22.577  17.232   6.018  0.1343  0.1673 -0.0099
    1DIPC   D2B 8554  22.468  17.463   5.600 -0.1116  0.0323 -0.0183
    1DIPC   D3B 8555  22.449  17.717   5.399  0.2095  0.2926  0.0151
    1DIPC   C4B 8556  22.138  17.675   5.045 -0.2073  0.2578 -0.0697
    1DIPC   NC3 8557   3.778  10.458   6.856  0.1982 -0.1696 -0.1670
    1DIPC   PO4 8558   3.897  10.030   6.778 -0.0278  0.2650  0.0773
    1DIPC   GL1 8559   3.954  10.271   6.437 -0.1771 -0.2348  0.2443
    1DIPC   GL2 8560   4.210  10.126   6.334 -0.0055 -0.0433  0.2719
    1DIPC   C1A 8561   3.753  10.380   6.084 -0.1329  0.0826  0.0353
    1DIPC   D2A 8562   3.773  10.436   5.666  0.0573 -0.1631 -0.0809
    1DIPC   D3A 8563   3.375  10.536   5.563 -0.0340 -0.0463 -0.0116
    1DIPC   C4A 8564   3.292  10.968   5.380  0.1756  0.2693  0.0437
    1DIPC   C1B 8565   4.146  10.068   5.876  0.0172  0.0594  0.0186
    1DIPC   D2B 8566   3.803   9.972   5.668  0.0680  0.0067  0.1616
    1DIPC   D3B 8567   3.950  10.161   5.241 -0.0198 -0.2930 -0.0220
    1DIPC   C4B 8568   3.917  10.254   4.840  0.1720 -0.0209  0.1514
    1DIPC   NC3 8569   9.019  23.006   5.899  0.0397  0.3628 -0.1909
    1DIPC   PO4 8570   8.606  23.134   6.001 -0.3020  0.1176  0.1055
    1DIPC   GL1 8571   8.574  23.028   5.544  0.0539  0.0667  0.3503
    1DIPC   GL2 8572   8.382  22.828   5.440 -0.0033 -0.1006 -0.2629
    1DIPC   C1A 8573   8.712  23.296   5.179 -0.0652 -0.1700  0.0702
    1DIPC   D2A 8574   8.625  23.165   4.691  0.1622 -0.1161 -0.4203
    1DIPC   D3A 8575   8.522  23.561   4.455 -0.0204  0.0838 -0.0690
    1DIPC   C4A 8576   8.387  23.953   4.070  0.0908  0.6158 -0.5200
    1DIPC   C1B 8577   8.265  23.072   5.068 -0.1612 -0.0611  0.1038
    1DIPC   D2B 8578   8.283  23.598   5.014  0.1550  0.0460 -0.0788
    1DIPC   D3B 8579   8.098  23.630   4.616  0.0753  0.0704 -0.0252
    1DIPC   C4B 8580   7.775  23.834   4.704 -0.0891  0.0366 -0.2863
    1DIPC   NC3 8581   8.132   0.158   7.300 -0.0377  0.0850  0.1192
    1DIPC   PO4 8582   7.754   0.027   7.030 -0.0420 -0.0633 -0.0825
    1DIPC   GL1 8583   7.858   0.027   6.690  0.1816 -0.1953  0.2134
    1DIPC   GL2 8584   7.938  -0.226   6.468 -0.0679 -0.1119  0.0826
    1DIPC   C1A 8585   7.667   0.105   6.351  0.0221 -0.1720  0.0608
    1DIPC   D2A 8586   7.680   0.050   5.824  0.3872 -0.3056 -0.0584
    1DIPC   D3A 8587   7.184   0.015   5.715 -0.1159 -0.1443  0.2938
    1DIPC   C4A 8588   7.228  -0.065   5.402 -0.0414 -0.0441  0.2537
    1DIPC   C1B 8589   8.243  -0.129   6.092 -0.0624 -0.0406  0.1141
    1DIPC   D2B 8590   8.158  -0.027   5.712  0.5813  0.0969  0.1135
    1DIPC   D3B 8591   8.496   0.209   5.884 -0.2549 -0.0659  0.3799
    1DIPC   C4B 8592   8.585   0.490   5.666  0.1280  0.2894 -0.1509
    1DIPC   NC3 8593  24.681  20.868   6.659 -0.1731  0.1132  0.1554
    1DIPC   PO4 8594  24.266  20.699   6.724  0.2516 -0.0795 -0.2999
    1DIPC   GL1 8595  24.307  20.894   6.296  0.2033  0.1865 -0.3176
    1DIPC   GL2 8596  24.629  21.027   6.183 -0.2467 -0.0346 -0.0090
    1DIPC   C1A 8597  23.955  21.203   6.157 -0.0825 -0.0615 -0.3260
    1DIPC   D2A 8598  23.537  21.406   6.358  0.0732  0.0595 -0.0180
    1DIPC   D3A 8599  23.281  21.374   6.021 -0.1284  0.2109 -0.0455
    1DIPC   C4A 8600  23.408  21.366   5.623 -0.0935 -0.2473  0.0580
    1DIPC   C1B 8601  24.420  21.032   5.809 -0.2279 -0.2240  0.1099
    1DIPC   D2B 8602  24.233  21.174   5.409  0.3411  0.1353 -0.6651
    1DIPC   D3B 8603  24.203  20.989   5.067 -0.2284  0.3809  0.0810
    1DIPC   C4B 8604  23.831  21.181   4.945  0.0056 -0.0963 -0.0848
    1DIPC   NC3 8605  21.710  20.585   7.216  0.0606 -0.2145  0.1150
    1DIPC   PO4 8606  21.779  20.838   6.915  0.0993 -0.0591 -0.0862
    1DIPC   GL1 8607  21.647  21.111   6.484  0.0891 -0.0130 -0.2721
    1DIPC   GL2 8608  21.478  21.403   6.547 -0.2049 -0.3385 -0.0746
    1DIPC   C1A 8609  21.525  21.273   6.059 -0.0262 -0.4387 -0.0580
    1DIPC   D2A 8610  21.549  21.286   5.605  0.2327  0.3161 -0.0310
    1DIPC   D3A 8611  21.505  20.965   5.280  0.0532 -0.1855 -0.0458
    1DIPC   C4A 8612  21.436  21.025   4.874 -0.1530  0.0603  0.1353
    1DIPC   C1B 8613  21.120  21.399   6.331  0.1655 -0.1115 -0.0380
    1DIPC   D2B 8614  21.029  21.219   5.968 -0.0164 -0.1121 -0.2982
    1DIPC   D3B 8615  21.112  21.477   5.684 -0.1067 -0.2500 -0.1406
    1DIPC   C4B 8616  20.889  21.871   5.578 -0.0690 -0.2908  0.1155
    1DIPC   NC3 8617  27.827  21.492   6.310 -0.3880  0.0072  0.1765
    1DIPC   PO4 8618  27.401  21.468   6.281 -0.0300 -0.0223 -0.2882
    1DIPC   GL1 8619  27.594  21.373   5.913 -0.1869 -0.0889  0.2594
    1DIPC   GL2 8620  27.839  21.402   5.608  0.1191 -0.1181 -0.0150
    1DIPC   C1A 8621  27.426  21.185   5.553  0.2635 -0.1720  0.0357
    1DIPC   D2A 8622  27.611  21.067   5.108  0.1329  0.1415  0.0112
    1DIPC   D3A 8623  27.855  20.701   4.906 -0.1107 -0.0735  0.3744
    1DIPC   C4A 8624  27.590  20.448   4.767 -0.2918  0.0698 -0.0598
    1DIPC   C1B 8625  27.807  20.965   5.677  0.1812 -0.0493  0.0216
    1DIPC   D2B 8626  27.408  20.656   5.675 -0.1113  0.3708 -0.1198
    1DIPC   D3B 8627  27.602  20.621   5.305  0.1119  0.2887 -0.1560
    1DIPC   C4B 8628  27.789  20.288   5.174  0.5318  0.0710  0.0009
    1DIPC   NC3 8629   6.328  12.971   6.475 -0.2336 -0.0387  0.3797
    1DIPC   PO4 8630   6.048  12.874   6.120  0.0153  0.2240 -0.0352
    1DIPC   GL1 8631   5.858  12.726   5.688 -0.1394  0.1098  0.1405
    1DIPC   GL2 8632   6.206  12.693   5.677 -0.1592  0.1654  0.2924
    1DIPC   C1A 8633   5.587  12.619   5.282  0.1990  0.1933  0.0774
    1DIPC   D2A 8634   5.312  12.587   4.914 -0.2228 -0.3985  0.0926
    1DIPC   D3A 8635   5.275  12.127   5.085  0.0395  0.0365  0.0057
    1DIPC   C4A 8636   5.493  12.111   5.482 -0.1018 -0.4186  0.1956
    1DIPC   C1B 8637   6.289  12.740   5.213 -0.0232 -0.1765 -0.0024
    1DIPC   D2B 8638   6.113  12.871   4.871  0.0171 -0.1587  0.2226
    1DIPC   D3B 8639   5.759  12.490   4.775  0.1231  0.3362 -0.0248
    1DIPC   C4B 8640   5.712  12.043   4.827  0.0165  0.0084 -0.2623
    1DIPC   NC3 8641  15.922   5.155   6.399  0.0341 -0.1703 -0.1723
    1DIPC   PO4 8642  16.261   4.893   6.231 -0.0675  0.1731  0.1141
    1DIPC   GL1 8643  16.252   4.608   5.855  0.0267  0.1917  0.3222
    1DIPC   GL2 8644  16.034   4.445   5.648  0.1154 -0.1616  0.0371
    1DIPC   C1A 8645  16.466   4.597   5.398 -0.0614 -0.0210  0.2321
    1DIPC   D2A 8646  16.572   4.742   5.003  0.2089  0.2518  0.2088
    1DIPC   D3A 8647  16.127   4.984   5.105 -0.0187 -0.0588 -0.3644
    1DIPC   C4A 8648  15.873   4.752   5.338  0.0313 -0.0118 -0.0094
    1DIPC   C1B 8649  15.925   4.182   5.294  0.3112 -0.0587 -0.3762
    1DIPC   D2B 8650  15.693   4.141   4.936  0.0329  0.1947  0.0028
    1DIPC   D3B 8651  15.321   4.297   4.682  0.0532 -0.2715 -0.1546
    1DIPC   C4B 8652  15.063   4.601   4.911  0.3660  0.1510  0.1898
    1DIPC   NC3 8653  19.079   5.956   6.384  0.0399 -0.1156  0.4299
    1DIPC   PO4 8654  18.791   5.904   6.200 -0.1151 -0.2723 -0.0305
    1DIPC   GL1 8655  18.815   5.735   5.865 -0.3199  0.0212  0.3807
    1DIPC   GL2 8656  18.754   6.025   5.600 -0.0350  0.1636 -0.2897
    1DIPC   C1A 8657  18.925   5.610   5.389  0.4406  0.1996  0.2012
    1DIPC   D2A 8658  19.032   5.693   4.965  0.0003 -0.0070 -0.3084
    1DIPC   D3A 8659  18.880   5.568   4.649  0.1498 -0.0461  0.0904
    1DIPC   C4A 8660  18.746   5.859   4.358 -0.0807  0.1047 -0.1516
    1DIPC   C1B 8661  18.510   5.973   5.259 -0.0998 -0.1737  0.2875
    1DIPC   D2B 8662  18.386   5.898   4.838 -0.2391 -0.1614  0.0650
    1DIPC   D3B 8663  18.464   5.548   5.080 -0.0757 -0.2055  0.1743
    1DIPC   C4B 8664  18.410   5.600   5.523  0.2075  0.1274  0.1158
    1DIPC   NC3 8665  20.704  25.869   6.726 -0.1121 -0.1536 -0.0699
    1DIPC   PO4 8666  20.348  26.068   6.863 -0.1202 -0.1574 -0.2205
    1DIPC   GL1 8667  20.238  25.859   6.501 -0.3378 -0.1317 -0.1090
    1DIPC   GL2 8668  20.283  25.551   6.654  0.0170 -0.0883 -0.1726
    1DIPC   C1A 8669  20.383  26.004   6.035 -0.0755 -0.0293 -0.1752
    1DIPC   D2A 8670  20.280  26.238   5.772  0.0764 -0.2581 -0.1883
    1DIPC   D3A 8671  20.633  26.184   5.601 -0.1488  0.0943  0.0017
    1DIPC   C4A 8672  20.581  26.527   5.339  0.1032  0.0844 -0.0178
    1DIPC   C1B 8673  20.107  25.563   6.112 -0.4280 -0.0385  0.2209
    1DIPC   D2B 8674  19.939  25.770   5.699 -0.2702 -0.0741  0.2202
    1DIPC   D3B 8675  20.175  26.085   5.309  0.0122 -0.3477 -0.4862
    1DIPC   C4B 8676  19.907  26.280   5.093  0.3017  0.1677  0.0725
    1DIPC   NC3 8677  20.832  17.295   7.161  0.2417 -0.0459 -0.0692
    1DIPC   PO4 8678  20.608  17.083   6.743  0.2685 -0.0792 -0.0648
    1DIPC   GL1 8679  20.742  17.341   6.294  0.3089 -0.1155 -0.2720
    1DIPC   GL2 8680  20.941  17.067   6.173 -0.2291  0.1382  0.1966
    1DIPC   C1A 8681  20.575  17.379   5.937 -0.1513  0.2856  0.2874
    1DIPC   D2A 8682  20.516  17.375   5.476  0.3285  0.1664  0.0209
    1DIPC   D3A 8683  20.537  17.486   5.103  0.2629 -0.0768 -0.2160
    1DIPC   C4A 8684  20.782  17.316   4.748  0.0480  0.1508  0.0409
    1DIPC   C1B 8685  21.001  17.086   5.665 -0.2706 -0.1945  0.0334
    1DIPC   D2B 8686  20.902  17.158   5.242 -0.0417 -0.0217  0.1298
    1DIPC   D3B 8687  21.237  17.434   4.922 -0.0557 -0.1038  0.1158
    1DIPC   C4B 8688  21.470  17.295   4.659  0.0869  0.1448  0.3931
    1DIPC   NC3 8689  24.025  13.376   6.349  0.2102 -0.2583  0.4611
    1DIPC   PO4 8690  24.059  13.765   6.157 -0.2192 -0.0251 -0.3593
    1DIPC   GL1 8691  23.901  13.679   5.787  0.0267  0.0219 -0.0977
    1DIPC   GL2 8692  23.657  13.835   5.663 -0.2286  0.1746 -0.1488
    1DIPC   C1A 8693  23.987  13.520   5.441  0.3590 -0.0194  0.1535
    1DIPC   D2A 8694  24.156  13.735   5.138  0.2447 -0.1275 -0.0908
    1DIPC   D3A 8695  24.563  13.961   5.223 -0.1117  0.1357 -0.0692
    1DIPC   C4A 8696  24.866  13.643   5.244  0.1574  0.2537  0.0391
    1DIPC   C1B 8697  23.675  13.791   5.228 -0.6691 -0.1269  0.0210
    1DIPC   D2B 8698  23.637  13.720   4.747 -0.0117 -0.0823  0.1587
    1DIPC   D3B 8699  23.154  13.663   4.693  0.1154 -0.1233 -0.1372
    1DIPC   C4B 8700  22.980  13.432   4.344  0.2674  0.2427 -0.0259
    1DIPC   NC3 8701  19.840   2.861   6.783  0.1781 -0.2447  0.0938
    1DIPC   PO4 8702  19.890   3.364   6.650  0.1330  0.0144  0.2187
    1DIPC   GL1 8703  19.850   3.207   6.243 -0.1084  0.1254 -0.1131
    1DIPC   GL2 8704  19.604   3.222   6.008 -0.3966  0.1127 -0.1141
    1DIPC   C1A 8705  20.059   3.399   5.922  0.0942 -0.0804 -0.2799
    1DIPC   D2A 8706  20.134   3.644   5.568  0.0725 -0.1057 -0.0060
    1DIPC   D3A 8707  20.522   3.756   5.572 -0.1966  0.2683 -0.0255
    1DIPC   C4A 8708  20.825   3.664   5.121  0.5199  0.1894 -0.0003
    1DIPC   C1B 8709  19.616   3.416   5.641 -0.1876 -0.0476  0.1089
    1DIPC   D2B 8710  19.718   3.537   5.188  0.1038 -0.2258  0.0576
    1DIPC   D3B 8711  20.064   3.651   5.057  0.1652 -0.0384  0.2286
    1DIPC   C4B 8712  20.430   3.400   5.267 -0.0310 -0.2109 -0.2461
    1DIPC   NC3 8713  19.190   6.268   6.769  0.1483  0.2192  0.0089
    1DIPC   PO4 8714  18.788   6.227   6.641  0.1013 -0.0900  0.1469
    1DIPC   GL1 8715  18.966   6.440   6.254  0.0783  0.0881  0.1882
    1DIPC   GL2 8716  18.806   6.395   5.993 -0.1725 -0.0698  0.0414
    1DIPC   C1A 8717  19.154   6.744   6.169  0.0004  0.0924 -0.0448
    1DIPC   D2A 8718  19.083   7.035   5.871 -0.1529  0.0789 -0.0465
    1DIPC   D3A 8719  18.691   6.861   5.913  0.0578 -0.0061  0.0645
    1DIPC   C4A 8720  18.350   6.975   5.671  0.0633  0.1132 -0.0346
    1DIPC   C1B 8721  18.561   6.493   5.615  0.2169  0.1784  0.1443
    1DIPC   D2B 8722  18.430   6.683   5.253  0.0090 -0.1780  0.2806
    1DIPC   D3B 8723  18.652   6.467   5.012 -0.2132 -0.0404 -0.0933
    1DIPC   C4B 8724  19.008   6.142   5.107  0.0746 -0.3355 -0.0678
    1DIPC   NC3 8725  23.472  28.686   7.027 -0.3110  0.4020  0.2411
    1DIPC   PO4 8726  23.273  29.145   7.011 -0.0566  0.3431  0.1218
    1DIPC   GL1 8727  23.232  29.287   6.630  0.2161  0.0442  0.1888
    1DIPC   GL2 8728  23.388  29.247   6.503  0.0014 -0.0302  0.2122
    1DIPC   C1A 8729  23.001  29.509   6.309 -0.1296  0.0055 -0.1790
    1DIPC   D2A 8730  22.724  29.541   6.236 -0.1792  0.2676 -0.0208
    1DIPC   D3A 8731  22.554  29.195   6.398 -0.1788 -0.0781  0.2740
    1DIPC   C4A 8732  22.247  28.944   6.219  0.0918 -0.0208 -0.0871
    1DIPC   C1B 8733  23.253  29.168   6.110 -0.3647 -0.1617  0.0779
    1DIPC   D2B 8734  23.056  29.454   5.841  0.2772 -0.2701  0.3101
    1DIPC   D3B 8735  22.959  29.299   5.401  0.1779 -0.1228 -0.0996
    1DIPC   C4B 8736  22.612  29.060   5.216 -0.0658  0.1202  0.0246
    1DIPC   NC3 8737   6.503  29.646   7.590  0.3831 -0.0991 -0.1207
    1DIPC   PO4 8738   6.478  29.355   7.166 -0.4536  0.2619 -0.0182
    1DIPC   GL1 8739   6.529  29.460   6.749 -0.3273  0.3697 -0.3054
    1DIPC   GL2 8740   6.439  29.732   6.700 -0.1177  0.0524 -0.1869
    1DIPC   C1A 8741   6.901  29.476   6.440  0.2747 -0.0538 -0.0625
    1DIPC   D2A 8742   7.090  29.439   6.110 -0.1962 -0.2232  0.2695
    1DIPC   D3A 8743   7.339  29.221   5.806  0.1816  0.2314 -0.0234
    1DIPC   C4A 8744   7.669  29.382   5.675  0.0274  0.0769 -0.0239
    1DIPC   C1B 8745   6.223  30.029   6.457  0.0256  0.0049 -0.2455
    1DIPC   D2B 8746   5.742  30.071   6.273 -0.0723  0.1435 -0.1228
    1DIPC   D3B 8747   5.705  30.118   5.778  0.1791  0.0354  0.1228
    1DIPC   C4B 8748   5.999  30.417   5.565  0.1949  0.1284 -0.1334
    1DIPC   NC3 8749  17.813  20.567   6.885 -0.2381  0.1257 -0.0655
    1DIPC   PO4 8750  18.190  20.886   6.951 -0.6314  0.2150  0.0017
    1DIPC   GL1 8751  18.308  20.607   6.613 -0.1819 -0.0391 -0.0298
    1DIPC   GL2 8752  18.553  20.584   6.462 -0.0779  0.0656  0.0353
    1DIPC   C1A 8753  18.259  20.356   6.195 -0.0829 -0.1152  0.1121
    1DIPC   D2A 8754  18.336  20.201   5.840 -0.1716  0.4680 -0.3296
    1DIPC   D3A 8755  18.042  20.257   5.446  0.1711  0.1444  0.1597
    1DIPC   C4A 8756  18.092  20.614   5.266  0.0799  0.1252  0.0557
    1DIPC   C1B 8757  18.664  20.536   5.976  0.1149  0.0257  0.0876
    1DIPC   D2B 8758  18.675  20.372   5.529  0.0032  0.0479  0.3504
    1DIPC   D3B 8759  18.572  20.723   5.256 -0.1173 -0.3498 -0.3702
    1DIPC   C4B 8760  18.759  20.587   4.918 -0.0043  0.0887  0.2123
    1DIPC   NC3 8761   9.560   1.171   7.425  0.1549  0.1454  0.0631
    1DIPC   PO4 8762   9.377   1.487   7.134  0.1932  0.0300  0.0065
    1DIPC   GL1 8763   9.417   1.734   6.825  0.0822 -0.0889  0.0992
    1DIPC   GL2 8764   9.688   1.652   6.709 -0.0570  0.1902  0.1468
    1DIPC   C1A 8765   9.351   1.657   6.370  0.0939  0.0334 -0.2348
    1DIPC   D2A 8766   9.326   1.538   5.992  0.2790  0.3741  0.0493
    1DIPC   D3A 8767   9.067   1.279   6.120  0.2308  0.1972  0.0422
    1DIPC   C4A 8768   8.744   1.246   5.759  0.1248  0.2065 -0.0207
    1DIPC   C1B 8769  10.011   1.750   6.431  0.1554 -0.0526 -0.3438
    1DIPC   D2B 8770   9.961   1.755   6.006 -0.0188 -0.2952  0.2349
    1DIPC   D3B 8771  10.242   1.803   5.694  0.1385 -0.2179 -0.1794
    1DIPC   C4B 8772  10.231   1.456   5.348 -0.1430  0.0202 -0.1558
    1DIPC   NC3 8773  23.453  23.342   6.322  0.0975  0.2122  0.1270
    1DIPC   PO4 8774  23.536  23.781   6.539 -0.0305  0.2126  0.1550
    1DIPC   GL1 8775  23.331  23.815   6.200 -0.2370 -0.1421  0.0663
    1DIPC   GL2 8776  23.320  23.643   5.954 -0.0147 -0.3899  0.0374
    1DIPC   C1A 8777  23.030  24.076   5.982 -0.0080 -0.2321  0.1114
    1DIPC   D2A 8778  23.023  24.353   5.669  0.1136 -0.2461  0.0772
    1DIPC   D3A 8779  22.799  24.648   5.740 -0.2264 -0.0406  0.1266
    1DIPC   C4A 8780  22.721  24.903   5.388 -0.2053  0.2339 -0.1616
    1DIPC   C1B 8781  23.352  23.476   5.474 -0.0610 -0.3088 -0.0227
    1DIPC   D2B 8782  23.106  23.459   5.075 -0.2142  0.0499 -0.0396
    1DIPC   D3B 8783  23.588  23.330   5.026 -0.0460 -0.0316 -0.4197
    1DIPC   C4B 8784  23.732  23.163   4.696 -0.0364 -0.1753 -0.0973
    1DIPC   NC3 8785   6.373  10.353   6.928  0.1019  0.1661 -0.1398
    1DIPC   PO4 8786   6.799  10.177   7.147 -0.2972 -0.3101 -0.0530
    1DIPC   GL1 8787   6.673  10.124   6.640  0.1074  0.0482 -0.1204
    1DIPC   GL2 8788   6.597  10.237   6.377 -0.1188  0.0442  0.1997
    1DIPC   C1A 8789   6.988   9.921   6.314 -0.2164 -0.0199 -0.0665
    1DIPC   D2A 8790   7.099   9.745   5.969  0.2334 -0.0001  0.0035
    1DIPC   D3A 8791   7.069  10.107   5.684 -0.0395 -0.0581 -0.1718
    1DIPC   C4A 8792   6.805  10.112   5.280  0.1744  0.0033  0.3169
    1DIPC   C1B 8793   6.698  10.335   5.954  0.2145  0.2718  0.0655
    1DIPC   D2B 8794   6.871  10.522   5.532 -0.1561  0.1045 -0.0591
    1DIPC   D3B 8795   7.316  10.382   5.359 -0.1763 -0.1559  0.0862
    1DIPC   C4B 8796   7.506   9.910   5.625  0.2592  0.1480  0.0217
    1DIPC   NC3 8797   9.880  27.279   7.209  0.0517 -0.0385 -0.2224
    1DIPC   PO4 8798   9.728  27.689   7.038 -0.0947 -0.0530  0.2968
    1DIPC   GL1 8799   9.842  27.722   6.645  0.2626 -0.0153 -0.0351
    1DIPC   GL2 8800   9.722  28.114   6.717  0.0755  0.1800  0.1840
    1DIPC   C1A 8801   9.852  27.857   6.305 -0.1926  0.0829  0.1284
    1DIPC   D2A 8802   9.497  27.941   6.046 -0.1584 -0.0261  0.1474
    1DIPC   D3A 8803   9.589  28.144   5.642 -0.0174  0.2763  0.0141
    1DIPC   C4A 8804   9.349  28.529   5.505 -0.2584  0.0956 -0.1946
    1DIPC   C1B 8805  10.014  28.392   6.462  0.0470 -0.1747  0.2651
    1DIPC   D2B 8806  10.416  28.466   6.573  0.0632 -0.1526  0.0616
    1DIPC   D3B 8807  10.398  28.872   6.846 -0.1419 -0.1137  0.3857
    1DIPC   C4B 8808  10.063  28.914   6.542 -0.0974  0.1886 -0.1461
    1DIPC   NC3 8809   4.318  18.685   6.147 -0.1436 -0.1339  0.0058
    1DIPC   PO4 8810   4.554  18.621   5.690  0.0562 -0.0441  0.4107
    1DIPC   GL1 8811   4.496  18.468   5.320 -0.3277  0.1216  0.2506
    1DIPC   GL2 8812   4.770  18.273   5.302  0.1371  0.1281  0.0504
    1DIPC   C1A 8813   4.281  18.542   4.968 -0.1190  0.0649 -0.3223
    1DIPC   D2A 8814   4.019  18.828   4.760 -0.2957  0.0568  0.2579
    1DIPC   D3A 8815   3.643  18.871   4.530  0.0456  0.3574  0.1893
    1DIPC   C4A 8816   3.252  18.712   4.617  0.3171  0.0690 -0.0084
    1DIPC   C1B 8817   4.791  18.257   4.804 -0.0571  0.1070  0.0152
    1DIPC   D2B 8818   4.884  18.351   4.374  0.0603 -0.0934 -0.0531
    1DIPC   D3B 8819   4.842  18.728   4.232  0.1032  0.2431 -0.1686
    1DIPC   C4B 8820   4.510  18.737   3.906  0.2660 -0.1616  0.2057
    1DIPC   NC3 8821  11.944   6.986   7.369 -0.1182  0.2201 -0.0177
    1DIPC   PO4 8822  12.212   6.613   7.437  0.1825  0.4324  0.0510
    1DIPC   GL1 8823  12.153   6.597   7.061 -0.1066  0.0380 -0.0208
    1DIPC   GL2 8824  11.911   6.686   6.918  0.1232  0.0550 -0.1533
    1DIPC   C1A 8825  12.339   6.374   6.770  0.0890  0.1389  0.0849
    1DIPC   D2A 8826  12.461   6.296   6.367  0.0542 -0.0706  0.0817
    1DIPC   D3A 8827  12.523   6.046   5.979  0.2120  0.0998 -0.1510
    1DIPC   C4A 8828  12.755   6.334   5.735  0.2188 -0.4913  0.0242
    1DIPC   C1B 8829  11.857   6.315   6.511 -0.3151  0.1299 -0.1482
    1DIPC   D2B 8830  12.074   6.224   6.063  0.0656 -0.2722 -0.0575
    1DIPC   D3B 8831  11.976   6.039   5.692 -0.2817  0.1314  0.2798
    1DIPC   C4B 8832  11.614   5.748   5.566 -0.1607  0.0346  0.0985
    1DIPC   NC3 8833   5.544   5.106   7.092 -0.0513 -0.0401  0.1861
    1DIPC   PO4 8834   5.919   4.901   7.229  0.0657  0.0142  0.0144
    1DIPC   GL1 8835   6.003   4.966   6.749  0.1213 -0.0587  0.0761
    1DIPC   GL2 8836   5.716   4.845   6.594 -0.0370 -0.0443  0.2365
    1DIPC   C1A 8837   6.150   4.949   6.275 -0.2112  0.0584  0.2782
    1DIPC   D2A 8838   6.384   4.759   6.071 -0.3130  0.2371 -0.0064
    1DIPC   D3A 8839   6.500   5.031   5.738  0.2156 -0.1578 -0.1043
    1DIPC   C4A 8840   6.915   4.867   5.607 -0.4044  0.0160  0.1557
    1DIPC   C1B 8841   5.893   4.556   6.326  0.2260  0.0408  0.0101
    1DIPC   D2B 8842   6.203   4.281   6.148  0.1123 -0.2485 -0.0683
    1DIPC   D3B 8843   6.319   4.385   5.651 -0.3237 -0.0299 -0.1143
    1DIPC   C4B 8844   6.519   4.650   5.446 -0.0386 -0.1757  0.2915
    1DIPC   NC3 8845  27.872  29.313   6.734 -0.1812 -0.0090  0.0842
    1DIPC   PO4 8846  28.344  29.405   6.950 -0.2089  0.3059  0.1890
    1DIPC   GL1 8847  28.314  29.170   6.582 -0.1184 -0.0510  0.0694
    1DIPC   GL2 8848  28.243  29.433   6.370  0.0531  0.0704  0.2849
    1DIPC   C1A 8849  28.420  28.988   6.171 -0.0304  0.3051 -0.2319
    1DIPC   D2A 8850  28.843  28.860   6.133  0.1013  0.0472 -0.0248
    1DIPC   D3A 8851  28.780  28.485   6.016 -0.0575  0.1314 -0.2238
    1DIPC   C4A 8852  28.806  28.338   5.602  0.0726  0.2345  0.2698
    1DIPC   C1B 8853  28.080  29.541   5.894  0.0781  0.2060  0.1330
    1DIPC   D2B 8854  27.644  29.527   5.652 -0.1383  0.0993 -0.1382
    1DIPC   D3B 8855  27.679  29.288   5.420 -0.0359  0.1864 -0.0387
    1DIPC   C4B 8856  28.128  29.083   5.306  0.0333 -0.0396 -0.0725
    1DIPC   NC3 8857  14.604   5.045   6.365 -0.2042  0.2161  0.2379
    1DIPC   PO4 8858  14.923   4.724   6.267  0.0309 -0.2939  0.0506
    1DIPC   GL1 8859  14.551   4.720   6.004  0.0635  0.0803  0.0858
    1DIPC   GL2 8860  14.610   4.865   5.818 -0.2699 -0.1467 -0.0896
    1DIPC   C1A 8861  14.130   4.671   5.839  0.0685  0.0438  0.1035
    1DIPC   D2A 8862  13.899   4.815   5.459 -0.1186 -0.2468 -0.3021
    1DIPC   D3A 8863  13.609   5.108   5.442 -0.1459  0.2249 -0.1416
    1DIPC   C4A 8864  13.212   5.018   5.240  0.3702  0.2253 -0.1378
    1DIPC   C1B 8865  14.213   5.110   5.615  0.4121  0.3674 -0.3422
    1DIPC   D2B 8866  14.045   5.330   5.324 -0.0669 -0.1364  0.0303
    1DIPC   D3B 8867  13.663   5.531   5.084 -0.0248  0.2070  0.1028
    1DIPC   C4B 8868  13.310   5.470   5.191 -0.0567 -0.0375  0.0706
    1DIPC   NC3 8869  13.262  22.028   6.109 -0.0511  0.0393  0.0624
    1DIPC   PO4 8870  13.454  22.429   6.226  0.0490  0.0638 -0.0199
    1DIPC   GL1 8871  13.339  22.418   5.756  0.2368 -0.2032  0.0402
    1DIPC   GL2 8872  13.437  22.716   5.797  0.1322  0.1452 -0.1176
    1DIPC   C1A 8873  13.367  22.493   5.349 -0.2294  0.2667 -0.0842
    1DIPC   D2A 8874  13.457  22.274   5.017 -0.2079 -0.1902  0.0116
    1DIPC   D3A 8875  13.467  22.159   4.634 -0.4503 -0.1829  0.0617
    1DIPC   C4A 8876  13.041  22.023   4.534  0.1487 -0.2594 -0.1319
    1DIPC   C1B 8877  13.411  23.002   5.502  0.0879  0.0024  0.0617
    1DIPC   D2B 8878  12.974  23.221   5.435 -0.0209 -0.0493  0.3391
    1DIPC   D3B 8879  12.924  22.836   5.631  0.0907  0.0701 -0.2758
    1DIPC   C4B 8880  12.823  22.497   5.394  0.4138 -0.0928  0.1169
    1DIPC   NC3 8881  14.883  28.858   6.773 -0.1796 -0.1991 -0.1469
    1DIPC   PO4 8882  14.449  28.859   6.671 -0.1277  0.0178 -0.0822
    1DIPC   GL1 8883  14.294  28.715   6.270 -0.0625 -0.5773  0.4561
    1DIPC   GL2 8884  14.261  28.931   6.009  0.0735 -0.0896 -0.0599
    1DIPC   C1A 8885  14.049  28.519   5.942  0.2058  0.2273  0.1519
    1DIPC   D2A 8886  14.003  28.163   5.757 -0.0921  0.0877 -0.1037
    1DIPC   D3A 8887  14.112  27.850   5.409 -0.2099 -0.0314  0.1919
    1DIPC   C4A 8888  13.878  27.886   4.933 -0.2208  0.0245 -0.2273
    1DIPC   C1B 8889  14.224  28.768   5.511 -0.4852  0.2113  0.1200
    1DIPC   D2B 8890  14.155  28.740   5.074 -0.1928 -0.1860 -0.1626
    1DIPC   D3B 8891  13.777  29.010   5.123 -0.0862  0.2204 -0.1358
    1DIPC   C4B 8892  13.680  28.875   5.460  0.3359  0.1853  0.2243
    1DIPC   NC3 8893  14.663  23.620   6.897 -0.0101  0.0051 -0.1094
    1DIPC   PO4 8894  15.047  23.666   6.592  0.0312  0.0336 -0.1462
    1DIPC   GL1 8895  14.978  23.795   6.159  0.4919 -0.0026 -0.1475
    1DIPC   GL2 8896  14.685  23.898   5.993  0.3306 -0.2826  0.1276
    1DIPC   C1A 8897  14.995  23.738   5.621 -0.0429 -0.0604 -0.0856
    1DIPC   D2A 8898  14.816  23.714   5.219  0.6816  0.1805 -0.4077
    1DIPC   D3A 8899  15.230  23.702   5.120 -0.2301  0.0194  0.2226
    1DIPC   C4A 8900  15.233  23.992   4.894 -0.1718  0.0645  0.0515
    1DIPC   C1B 8901  14.675  24.250   5.737  0.1674 -0.0870  0.3915
    1DIPC   D2B 8902  14.537  24.494   5.367  0.2746  0.0281 -0.2437
    1DIPC   D3B 8903  14.821  24.300   5.150  0.1977 -0.0244  0.1571
    1DIPC   C4B 8904  14.838  24.303   4.615  0.1300 -0.3002 -0.3154
    1DIPC   NC3 8905  15.157  27.235   7.052 -0.2315 -0.2560 -0.1604
    1DIPC   PO4 8906  14.807  27.478   6.949  0.0732 -0.2641 -0.0286
    1DIPC   GL1 8907  14.741  27.451   6.467 -0.0526 -0.1290  0.2235
    1DIPC   GL2 8908  14.670  27.786   6.253 -0.1203 -0.1571 -0.0519
    1DIPC   C1A 8909  14.536  27.197   6.158  0.4122  0.3135 -0.2144
    1DIPC   D2A 8910  14.643  27.102   5.759 -0.0514 -0.2239 -0.2402
    1DIPC   D3A 8911  14.331  27.377   5.555 -0.1590  0.2475  0.1760
    1DIPC   C4A 8912  13.914  27.132   5.616  0.0047  0.2816 -0.1945
    1DIPC   C1B 8913  14.731  27.727   5.861 -0.1273  0.0558 -0.0282
    1DIPC   D2B 8914  14.590  27.759   5.446  0.0532  0.0807 -0.0136
    1DIPC   D3B 8915  14.746  27.360   5.276  0.2364  0.0359 -0.1830
    1DIPC   C4B 8916  14.719  27.228   4.852 -0.0631  0.0982  0.1592
    1DIPC   NC3 8917  10.544  24.609   6.005  0.1002 -0.1679 -0.0820
    1DIPC   PO4 8918  10.627  24.200   6.170 -0.1563  0.0113  0.0158
    1DIPC   GL1 8919  10.636  24.023   5.804  0.1207  0.1330 -0.0322
    1DIPC   GL2 8920  10.654  24.273   5.552 -0.2529 -0.0764  0.2709
    1DIPC   C1A 8921  10.869  23.736   5.580  0.1119 -0.1034 -0.2240
    1DIPC   D2A 8922  11.224  23.478   5.563  0.1317 -0.0496 -0.0432
    1DIPC   D3A 8923  11.474  23.074   5.574 -0.0622  0.2056 -0.0722
    1DIPC   C4A 8924  11.457  22.783   5.353 -0.1216  0.2012 -0.0369
    1DIPC   C1B 8925  10.887  24.346   5.212  0.1111  0.3001  0.2313
    1DIPC   D2B 8926  10.941  24.659   4.885  0.4755  0.0688 -0.4497
    1DIPC   D3B 8927  11.207  24.425   4.690 -0.1815  0.1888  0.1666
    1DIPC   C4B 8928  11.448  24.134   4.993  0.1481 -0.0243  0.0625
    1DIPC   NC3 8929  22.183  27.598   6.322  0.3701  0.0747 -0.0516
    1DIPC   PO4 8930  21.925  27.454   6.573  0.0278  0.1110  0.1081
    1DIPC   GL1 8931  21.707  27.592   6.234 -0.1485 -0.0562 -0.2501
    1DIPC   GL2 8932  21.772  27.323   5.921 -0.2223 -0.0952 -0.3807
    1DIPC   C1A 8933  21.555  27.793   5.752 -0.1881  0.0812 -0.0066
    1DIPC   D2A 8934  21.121  27.679   5.480  0.1385  0.2546 -0.1427
    1DIPC   D3A 8935  21.086  28.221   5.343 -0.1857 -0.0399  0.0946
    1DIPC   C4A 8936  21.462  28.400   5.480 -0.2242  0.0488  0.2391
    1DIPC   C1B 8937  22.019  27.055   5.540 -0.0397 -0.2128  0.1338
    1DIPC   D2B 8938  22.235  26.920   5.156  0.1777 -0.0228  0.0728
    1DIPC   D3B 8939  22.659  26.817   5.150 -0.0646  0.4044  0.0777
    1DIPC   C4B 8940  22.805  26.361   4.986  0.0710 -0.2363  0.1502
    1DIPC   NC3 8941   4.127   6.979   7.007  0.2662  0.1403  0.0446
    1DIPC   PO4 8942   4.044   6.586   6.869 -0.0115  0.0886 -0.0248
    1DIPC   GL1 8943   4.218   6.489   6.379  0.2034 -0.2322 -0.3794
    1DIPC   GL2 8944   4.583   6.508   6.292  0.1163 -0.3003  0.1574
    1DIPC   C1A 8945   4.125   6.272   6.042  0.0876 -0.0438 -0.0389
    1DIPC   D2A 8946   4.209   6.292   5.575  0.1426  0.0500 -0.3877
    1DIPC   D3A 8947   4.159   5.839   5.631 -0.0620  0.1011 -0.1068
    1DIPC   C4A 8948   4.273   5.680   6.049  0.1250  0.3937  0.2519
    1DIPC   C1B 8949   4.475   6.699   5.831 -0.1302 -0.1064 -0.3894
    1DIPC   D2B 8950   4.493   6.974   5.388 -0.1331  0.0003  0.0189
    1DIPC   D3B 8951   4.495   7.308   5.460 -0.0539 -0.1268  0.2165
    1DIPC   C4B 8952   4.904   7.247   5.384  0.1273  0.2488  0.0736
    1DIPC   NC3 8953   1.651   4.915   6.693  0.0280 -0.0228  0.1617
    1DIPC   PO4 8954   2.035   4.736   6.565 -0.0832 -0.2220  0.0877
    1DIPC   GL1 8955   2.263   4.848   6.188  0.0440 -0.1296 -0.0626
    1DIPC   GL2 8956   2.545   4.943   6.388  0.1241  0.0468  0.2011
    1DIPC   C1A 8957   2.277   5.099   5.846  0.2192 -0.2064 -0.0909
    1DIPC   D2A 8958   2.094   5.324   5.513 -0.0929 -0.0931  0.3151
    1DIPC   D3A 8959   1.841   5.024   5.693 -0.1748 -0.2441  0.0509
    1DIPC   C4A 8960   1.653   4.845   5.319 -0.3275 -0.2066 -0.2185
    1DIPC   C1B 8961   2.722   4.780   5.946  0.0899 -0.3111 -0.0833
    1DIPC   D2B 8962   2.674   4.956   5.458 -0.1535  0.1488 -0.4049
    1DIPC   D3B 8963   2.595   4.601   5.110 -0.1128  0.1105  0.0544
    1DIPC   C4B 8964   2.365   4.187   5.409 -0.2967 -0.2548  0.2288
    1DIPC   NC3 8965  24.217  27.992   7.025  0.3031  0.3086  0.0592
    1DIPC   PO4 8966  23.856  28.201   7.074  0.2461 -0.0904  0.0860
    1DIPC   GL1 8967  24.033  28.257   6.565  0.1084  0.1636 -0.0536
    1DIPC   GL2 8968  23.792  27.935   6.321 -0.0940  0.0030  0.0141
    1DIPC   C1A 8969  24.192  28.122   6.115  0.1430  0.0654  0.0020
    1DIPC   D2A 8970  24.103  28.486   5.821 -0.1646 -0.1495 -0.0354
    1DIPC   D3A 8971  24.009  28.469   5.417 -0.0986 -0.2444 -0.0762
    1DIPC   C4A 8972  23.739  28.140   5.303 -0.1252  0.2465 -0.0007
    1DIPC   C1B 8973  23.717  28.422   6.225  0.0567  0.2494  0.1889
    1DIPC   D2B 8974  23.846  28.873   6.165 -0.1218 -0.2423 -0.0062
    1DIPC   D3B 8975  23.766  28.869   5.743  0.0153 -0.0781  0.1310
    1DIPC   C4B 8976  23.463  29.133   5.546  0.2735 -0.2202  0.0646
    1DIPC   NC3 8977  22.053  27.797   6.894 -0.2286  0.0765  0.0693
    1DIPC   PO4 8978  21.962  28.027   6.475  0.0467  0.1910  0.0075
    1DIPC   GL1 8979  21.979  27.966   6.057  0.0302  0.0611  0.2359
    1DIPC   GL2 8980  22.096  27.718   5.793 -0.0514 -0.1121 -0.0254
    1DIPC   C1A 8981  21.943  28.228   5.681  0.0407 -0.1641  0.0094
    1DIPC   D2A 8982  21.924  28.406   5.309  0.1866  0.1501  0.0040
    1DIPC   D3A 8983  21.657  28.784   5.163  0.4951  0.0214 -0.2747
    1DIPC   C4A 8984  21.357  29.057   5.427  0.0079 -0.1119 -0.2759
    1DIPC   C1B 8985  21.830  27.502   5.450 -0.1643  0.1167 -0.0320
    1DIPC   D2B 8986  21.445  27.334   5.348 -0.1018  0.1364  0.0079
    1DIPC   D3B 8987  21.245  27.074   4.888 -0.0075 -0.1331 -0.1533
    1DIPC   C4B 8988  21.575  26.782   4.635  0.1616 -0.2005 -0.2640
    1DIPC   NC3 8989   5.285   4.277   7.379 -0.1079 -0.3093 -0.0891
    1DIPC   PO4 8990   5.154   4.200   6.967 -0.0641 -0.2588 -0.2061
    1DIPC   GL1 8991   5.299   4.473   6.645  0.0593  0.2520  0.1675
    1DIPC   GL2 8992   5.576   4.287   6.632 -0.0038  0.1048 -0.0130
    1DIPC   C1A 8993   5.342   4.623   6.175 -0.2493 -0.0662  0.2476
    1DIPC   D2A 8994   5.221   5.011   6.005 -0.0249  0.1825  0.1121
    1DIPC   D3A 8995   5.335   5.095   5.641  0.1415 -0.0759 -0.0855
    1DIPC   C4A 8996   5.574   5.427   5.587  0.1684  0.0064  0.0357
    1DIPC   C1B 8997   5.632   4.124   6.245  0.1228 -0.2532  0.0523
    1DIPC   D2B 8998   5.681   4.365   5.890 -0.3201  0.3431  0.2436
    1DIPC   D3B 8999   5.273   4.289   5.756  0.1323  0.0854  0.1639
    1DIPC   C4B 9000   5.091   4.649   5.615  0.0452  0.3157  0.0391
    1DIPC   NC3 9001   3.854   1.584   7.016 -0.0840  0.0648 -0.0538
    1DIPC   PO4 9002   3.597   1.532   6.738 -0.0798  0.0118  0.1551
    1DIPC   GL1 9003   3.611   1.637   6.294 -0.2869  0.0337  0.3793
    1DIPC   GL2 9004   3.459   1.385   5.976 -0.1841 -0.2223 -0.0845
    1DIPC   C1A 9005   3.886   1.687   5.904  0.1253  0.0020 -0.0623
    1DIPC   D2A 9006   3.849   1.542   5.511 -0.1074 -0.2547 -0.0260
    1DIPC   D3A 9007   4.200   1.415   5.353 -0.1030 -0.0708  0.3280
    1DIPC   C4A 9008   4.519   1.828   5.189 -0.1580  0.1262  0.0130
    1DIPC   C1B 9009   3.256   1.322   5.534 -0.0502 -0.3180 -0.1564
    1DIPC   D2B 9010   3.196   1.204   5.058 -0.1405 -0.3244 -0.0126
    1DIPC   D3B 9011   3.017   0.864   5.243 -0.1258 -0.3005 -0.0410
    1DIPC   C4B 9012   2.963   0.381   5.177 -0.2651 -0.2174  0.0562
    1DIPC   NC3 9013   8.206   9.515   7.477 -0.1535  0.1430 -0.0594
    1DIPC   PO4 9014   8.727   9.509   7.585  0.1741 -0.4444  0.1943
    1DIPC   GL1 9015   8.684   9.664   7.168  0.2506  0.3720 -0.1549
    1DIPC   GL2 9016   8.409   9.334   6.996  0.0337  0.0628  0.0696
    1DIPC   C1A 9017   8.424   9.815   6.802 -0.1349 -0.0767  0.2271
    1DIPC   D2A 9018   8.065   9.957   6.612 -0.1485 -0.3114  0.0809
    1DIPC   D3A 9019   7.957   9.871   6.188 -0.1416  0.1042  0.1869
    1DIPC   C4A 9020   7.963  10.163   5.826 -0.1821  0.1511 -0.1859
    1DIPC   C1B 9021   8.515   9.335   6.506  0.0586 -0.0913 -0.0324
    1DIPC   D2B 9022   8.409   9.109   6.231 -0.3215 -0.0226 -0.1660
    1DIPC   D3B 9023   8.668   9.422   6.019  0.1454  0.2946  0.0878
    1DIPC   C4B 9024   8.612   9.583   5.574 -0.2783  0.0833 -0.0158
    1DIPC   NC3 9025   7.180  23.493   6.275  0.0558 -0.1243 -0.0376
    1DIPC   PO4 9026   7.225  24.005   6.243  0.0829  0.3169  0.1642
    1DIPC   GL1 9027   6.988  24.081   5.956  0.0549  0.2133  0.2529
    1DIPC   GL2 9028   6.975  24.407   5.996 -0.1328  0.1776  0.0661
    1DIPC   C1A 9029   7.083  23.709   5.646  0.1647 -0.1933 -0.2360
    1DIPC   D2A 9030   6.991  23.366   5.423  0.0685  0.0073  0.1848
    1DIPC   D3A 9031   6.807  23.471   5.076  0.1493 -0.0110 -0.2837
    1DIPC   C4A 9032   6.733  23.287   4.720 -0.3046 -0.1942  0.2307
    1DIPC   C1B 9033   7.199  24.352   5.598 -0.4263  0.2956 -0.0094
    1DIPC   D2B 9034   7.518  24.441   5.530  0.1474 -0.0816 -0.2338
    1DIPC   D3B 9035   7.865  24.680   5.421  0.0788 -0.0571  0.1947
    1DIPC   C4B 9036   8.096  24.481   5.136  0.1002 -0.1967 -0.1100
    1DIPC   NC3 9037  17.358   4.266   6.330  0.0336  0.1764 -0.1789
    1DIPC   PO4 9038  17.552   3.802   6.214  0.1563  0.1258  0.0994
    1DIPC   GL1 9039  17.628   3.641   5.776  0.2524  0.0849 -0.1458
    1DIPC   GL2 9040  17.780   3.832   5.503 -0.0535 -0.1094 -0.0649
    1DIPC   C1A 9041  17.647   3.377   5.458  0.0059 -0.0630  0.1948
    1DIPC   D2A 9042  17.584   2.995   5.269  0.3758  0.1634  0.0711
    1DIPC   D3A 9043  17.196   2.911   5.456  0.2501 -0.2243 -0.2294
    1DIPC   C4A 9044  17.115   2.939   5.884  0.0281  0.1047  0.0296
    1DIPC   C1B 9045  17.666   4.188   5.189 -0.2167 -0.1598 -0.0541
    1DIPC   D2B 9046  17.412   4.595   5.011 -0.0193  0.3220  0.2749
    1DIPC   D3B 9047  17.797   4.662   4.782  0.0827 -0.0615 -0.0252
    1DIPC   C4B 9048  18.009   4.238   4.759 -0.0440 -0.1331  0.2894
    1DIPC   NC3 9049  10.237   8.650   7.685  0.1015 -0.2795 -0.2455
    1DIPC   PO4 9050  10.291   8.333   7.390 -0.0060 -0.2837  0.2297
    1DIPC   GL1 9051  10.186   8.332   6.878  0.2368 -0.0356  0.3659
    1DIPC   GL2 9052  10.195   8.663   6.889 -0.0267  0.0119 -0.0308
    1DIPC   C1A 9053   9.986   8.255   6.422 -0.2074 -0.1182 -0.2095
    1DIPC   D2A 9054   9.849   8.361   6.014  0.5393  0.0994 -0.0573
    1DIPC   D3A 9055   9.821   8.047   5.729 -0.1221 -0.0803  0.1836
    1DIPC   C4A 9056   9.680   7.862   5.424 -0.2592 -0.2811 -0.1756
    1DIPC   C1B 9057  10.003   8.836   6.412 -0.2822 -0.0345 -0.1652
    1DIPC   D2B 9058  10.081   8.903   6.030  0.2145  0.0772 -0.2310
    1DIPC   D3B 9059   9.717   8.846   5.804  0.0258  0.0369  0.1539
    1DIPC   C4B 9060   9.604   9.093   5.508  0.0106  0.1078  0.1058
    1DIPC   NC3 9061   6.346  23.447   6.187 -0.3205  0.2434 -0.0985
    1DIPC   PO4 9062   6.714  23.315   6.062 -0.0419 -0.1959 -0.1177
    1DIPC   GL1 9063   6.468  23.397   5.686  0.0600 -0.0307 -0.1246
    1DIPC   GL2 9064   6.067  23.277   5.750  0.0376 -0.0120  0.0571
    1DIPC   C1A 9065   6.577  23.715   5.416 -0.3890  0.1521  0.0772
    1DIPC   D2A 9066   6.437  23.872   4.990  0.1574 -0.0441  0.1325
    1DIPC   D3A 9067   6.767  24.275   4.795  0.0697  0.2811 -0.1204
    1DIPC   C4A 9068   6.675  24.555   4.401 -0.1180 -0.0254 -0.3006
    1DIPC   C1B 9069   5.872  23.288   5.349  0.0444  0.1079 -0.2368
    1DIPC   D2B 9070   5.963  22.937   5.007  0.0300 -0.0932  0.0771
    1DIPC   D3B 9071   5.925  22.566   4.742  0.1679  0.0037  0.2588
    1DIPC   C4B 9072   6.128  22.443   4.338  0.3029 -0.0409 -0.1794
    1DIPC   NC3 9073  26.495  20.484   6.104  0.1072  0.0966 -0.0016
    1DIPC   PO4 9074  26.895  20.641   6.196 -0.1344 -0.1387 -0.0808
    1DIPC   GL1 9075  26.858  20.606   5.713  0.1974 -0.0714 -0.0196
    1DIPC   GL2 9076  26.619  20.703   5.545 -0.0526 -0.0733 -0.1633
    1DIPC   C1A 9077  26.972  20.341   5.468 -0.2443  0.1216  0.0429
    1DIPC   D2A 9078  27.234  20.379   5.060  0.0678  0.2493 -0.0715
    1DIPC   D3A 9079  27.126  20.776   5.261 -0.3454  0.4993 -0.0972
    1DIPC   C4A 9080  27.155  21.124   5.052  0.1061 -0.0635 -0.1299
    1DIPC   C1B 9081  26.547  20.475   5.140 -0.0217  0.0559 -0.2259
    1DIPC   D2B 9082  26.456  20.477   4.715  0.0476 -0.1307  0.1547
    1DIPC   D3B 9083  26.911  20.715   4.698  0.1476 -0.2749  0.2596
    1DIPC   C4B 9084  26.894  21.178   4.582 -0.0460 -0.0781 -0.2073
    1DIPC   NC3 9085  12.959  25.294   6.711 -0.1024  0.1776  0.1429
    1DIPC   PO4 9086  12.963  25.114   6.267  0.2860  0.1849 -0.2074
    1DIPC   GL1 9087  12.688  25.283   5.849 -0.1820 -0.1203 -0.0952
    1DIPC   GL2 9088  12.365  25.130   5.994  0.4043 -0.0549  0.1232
    1DIPC   C1A 9089  12.646  25.572   5.493  0.1036  0.0047 -0.0866
    1DIPC   D2A 9090  12.431  25.626   5.130 -0.1083 -0.1668 -0.3786
    1DIPC   D3A 9091  12.272  26.058   5.101 -0.1831 -0.3066 -0.0027
    1DIPC   C4A 9092  11.914  26.154   4.739  0.0593  0.2241  0.0925
    1DIPC   C1B 9093  12.205  25.256   5.530  0.1347 -0.0699 -0.1376
    1DIPC   D2B 9094  12.219  25.175   5.042 -0.1468 -0.3563  0.0609
    1DIPC   D3B 9095  12.614  25.261   4.858  0.1816  0.3272 -0.2970
    1DIPC   C4B 9096  12.575  25.359   4.454 -0.4424 -0.1378  0.0581
    1DIPC   NC3 9097  18.987  27.504   7.439 -0.1211  0.0290 -0.1069
    1DIPC   PO4 9098  18.983  27.882   7.369 -0.1288  0.0466  0.3625
    1DIPC   GL1 9099  19.208  27.736   6.978 -0.0567  0.2412  0.1903
    1DIPC   GL2 9100  19.068  27.734   6.726  0.1841 -0.1406 -0.1073
    1DIPC   C1A 9101  19.523  27.804   6.625  0.1555  0.2199  0.4164
    1DIPC   D2A 9102  19.752  28.010   6.299 -0.0193 -0.1539 -0.0133
    1DIPC   D3A 9103  19.699  27.599   6.134 -0.2357 -0.0063 -0.2467
    1DIPC   C4A 9104  20.119  27.243   5.928  0.2826 -0.0528 -0.1226
    1DIPC   C1B 9105  19.167  27.574   6.403 -0.0626 -0.0419  0.1581
    1DIPC   D2B 9106  19.139  27.187   6.153  0.3715 -0.1093  0.1805
    1DIPC   D3B 9107  19.447  27.205   5.896  0.0344 -0.2268 -0.2026
    1DIPC   C4B 9108  19.776  27.029   5.563  0.0269  0.1071 -0.0058
    1DIPC   NC3 9109  19.256  21.879   7.404  0.3382 -0.2946 -0.2095
    1DIPC   PO4 9110  19.511  21.817   7.094 -0.0264 -0.2433 -0.1662
    1DIPC   GL1 9111  19.657  21.791   6.668  0.0990 -0.2183  0.0947
    1DIPC   GL2 9112  19.437  21.807   6.382 -0.1447  0.0172 -0.3733
    1DIPC   C1A 9113  19.875  21.954   6.290 -0.0163  0.1270  0.1210
    1DIPC   D2A 9114  19.924  22.059   5.874  0.2053  0.0311 -0.0946
    1DIPC   D3A 9115  19.701  22.319   5.596  0.0461 -0.0735  0.6739
    1DIPC   C4A 9116  19.740  22.342   5.209 -0.0468  0.1921 -0.0249
    1DIPC   C1B 9117  19.395  21.556   5.994 -0.1017 -0.1106  0.1459
    1DIPC   D2B 9118  19.650  21.094   5.910 -0.2465 -0.3164 -0.1709
    1DIPC   D3B 9119  19.661  21.393   5.552 -0.3911  0.2576  0.3148
    1DIPC   C4B 9120  19.326  21.434   5.281  0.3011  0.4460  0.0677
    1DIPC   NC3 9121  26.738  24.373   6.866  0.0832 -0.1297  0.1021
    1DIPC   PO4 9122  27.110  24.204   6.772 -0.0463 -0.0747  0.1178
    1DIPC   GL1 9123  26.899  24.303   6.397  0.4077 -0.0337  0.0212
    1DIPC   GL2 9124  26.702  24.105   6.225 -0.0866  0.3009 -0.1579
    1DIPC   C1A 9125  27.018  24.380   5.964 -0.3258 -0.1837 -0.0017
    1DIPC   D2A 9126  27.161  24.030   5.678 -0.1947  0.3384  0.2044
    1DIPC   D3A 9127  27.475  23.873   5.354 -0.0624  0.1609  0.3837
    1DIPC   C4A 9128  27.540  23.777   4.954 -0.1568  0.3112  0.0580
    1DIPC   C1B 9129  26.644  24.045   5.726 -0.1650  0.1843  0.1772
    1DIPC   D2B 9130  26.489  24.365   5.461  0.1285 -0.1488 -0.0116
    1DIPC   D3B 9131  26.513  24.365   4.996  0.0503 -0.0264  0.0366
    1DIPC   C4B 9132  26.773  24.034   4.729 -0.1976 -0.0712 -0.2875
    1DIPC   NC3 9133  26.333  15.779   5.982 -0.0709  0.2207 -0.1427
    1DIPC   PO4 9134  26.236  15.349   6.185 -0.0484  0.0184  0.0297
    1DIPC   GL1 9135  26.257  15.269   5.751  0.2397 -0.2853 -0.0754
    1DIPC   GL2 9136  26.122  15.039   5.549 -0.0065  0.1146  0.3655
    1DIPC   C1A 9137  25.977  15.511   5.470  0.0493  0.1872  0.5983
    1DIPC   D2A 9138  25.958  15.465   4.969 -0.0995 -0.0566 -0.1002
    1DIPC   D3A 9139  25.905  15.065   4.816 -0.0924 -0.0202 -0.0400
    1DIPC   C4A 9140  25.569  14.876   4.942 -0.2024 -0.1416 -0.2567
    1DIPC   C1B 9141  25.829  15.043   5.320 -0.1238 -0.1032 -0.0889
    1DIPC   D2B 9142  25.504  15.333   5.024  0.0792 -0.3181 -0.1116
    1DIPC   D3B 9143  25.478  15.214   4.596  0.0911  0.2147 -0.0787
    1DIPC   C4B 9144  25.214  15.287   4.214 -0.0955 -0.4630 -0.0941
    1DIPC   NC3 9145   7.798   5.457   7.568  0.2278 -0.1168  0.2020
    1DIPC   PO4 9146   7.402   5.642   7.444 -0.0928  0.1777  0.1165
    1DIPC   GL1 9147   7.314   5.889   7.136 -0.0025 -0.0193 -0.1262
    1DIPC   GL2 9148   7.012   5.804   6.907  0.3356 -0.0632 -0.4424
    1DIPC   C1A 9149   7.575   6.123   6.779 -0.2671 -0.0523 -0.2528
    1DIPC   D2A 9150   7.696   6.365   6.510 -0.2312  0.0294 -0.2668
    1DIPC   D3A 9151   7.367   6.580   6.444 -0.2528  0.2727 -0.2370
    1DIPC   C4A 9152   7.655   6.881   6.397 -0.1412  0.2067 -0.1352
    1DIPC   C1B 9153   7.013   5.623   6.437  0.2215 -0.0181  0.3068
    1DIPC   D2B 9154   7.331   5.547   6.077  0.4538 -0.4411  0.1603
    1DIPC   D3B 9155   6.853   5.367   5.934 -0.3023 -0.3406 -0.0506
    1DIPC   C4B 9156   6.624   5.217   6.270  0.2135 -0.0774 -0.0117
    1DIPC   NC3 9157  12.970  25.627   6.092  0.0025  0.1022 -0.0663
    1DIPC   PO4 9158  13.374  25.488   6.322 -0.2880 -0.0874 -0.0695
    1DIPC   GL1 9159  13.278  25.324   5.902 -0.3190 -0.0241  0.0780
    1DIPC   GL2 9160  13.675  25.438   5.860  0.5813  0.1046  0.1092
    1DIPC   C1A 9161  13.358  25.317   5.457  0.0588  0.0696  0.0681
    1DIPC   D2A 9162  13.543  25.379   5.109 -0.0745 -0.1369 -0.0893
    1DIPC   D3A 9163  13.188  25.031   5.111 -0.1787  0.0641 -0.0001
    1DIPC   C4A 9164  13.111  24.883   5.564 -0.1714 -0.0738  0.0094
    1DIPC   C1B 9165  13.881  25.282   5.438  0.0804  0.0339 -0.2757
    1DIPC   D2B 9166  14.323  25.349   5.240  0.0897 -0.1044 -0.0713
    1DIPC   D3B 9167  14.367  25.561   5.457 -0.1991  0.0771  0.0058
    1DIPC   C4B 9168  14.454  25.863   5.148  0.1638  0.0048 -0.1308
    1DIPC   NC3 9169  20.932   7.639   5.999  0.0287 -0.0663 -0.1066
    1DIPC   PO4 9170  21.424   7.652   6.228 -0.0690 -0.3389  0.0022
    1DIPC   GL1 9171  21.471   7.391   5.906 -0.1126  0.0731 -0.4357
    1DIPC   GL2 9172  21.197   7.213   5.850  0.0018 -0.0062 -0.0877
    1DIPC   C1A 9173  21.745   7.197   5.593  0.1668  0.0274 -0.1117
    1DIPC   D2A 9174  21.788   7.024   5.237 -0.1081  0.0301 -0.2748
    1DIPC   D3A 9175  21.893   7.454   5.122 -0.0970  0.2028  0.1853
    1DIPC   C4A 9176  21.571   7.640   4.895 -0.0283  0.0441 -0.1662
    1DIPC   C1B 9177  21.316   6.906   5.451  0.3264  0.0633 -0.0223
    1DIPC   D2B 9178  21.274   6.927   5.073  0.3240  0.1551  0.0971
    1DIPC   D3B 9179  21.619   6.938   4.757 -0.0962  0.3129 -0.0200
    1DIPC   C4B 9180  21.842   7.233   4.674  0.1935 -0.1418  0.0513
    1DIPC   NC3 9181  14.397   1.323   7.108 -0.0062  0.1144 -0.1297
    1DIPC   PO4 9182  14.386   1.033   6.851  0.0232  0.1021  0.0337
    1DIPC   GL1 9183  14.657   0.768   6.732  0.0379  0.1465  0.1683
    1DIPC   GL2 9184  15.063   0.708   6.792 -0.1481  0.1963 -0.3863
    1DIPC   C1A 9185  14.789   0.658   6.280  0.3182 -0.0958 -0.1006
    1DIPC   D2A 9186  15.095   0.927   5.979 -0.0491 -0.1178  0.1830
    1DIPC   D3A 9187  14.822   1.019   5.598  0.1224 -0.0354 -0.1185
    1DIPC   C4A 9188  14.659   0.735   5.281  0.0099  0.1992 -0.0855
    1DIPC   C1B 9189  15.290   0.479   6.419 -0.0130 -0.1710  0.2593
    1DIPC   D2B 9190  15.558   0.219   6.216  0.0135 -0.0986 -0.1290
    1DIPC   D3B 9191  15.516   0.270   5.759 -0.0105  0.2791 -0.0251
    1DIPC   C4B 9192  15.710  -0.080   5.551  0.1162 -0.0402 -0.2073
    1DIPC   NC3 9193  10.924   0.609   7.598  0.2915 -0.1912  0.1868
    1DIPC   PO4 9194  10.932   0.753   7.151 -0.0313 -0.1119 -0.1521
    1DIPC   GL1 9195  10.988   0.507   6.815 -0.3178  0.0387 -0.1747
    1DIPC   GL2 9196  11.063   0.798   6.443 -0.1470 -0.0826 -0.1029
    1DIPC   C1A 9197  11.167   0.146   6.553  0.0653  0.2901  0.0276
    1DIPC   D2A 9198  11.241   0.198   6.115 -0.0383  0.1807  0.1058
    1DIPC   D3A 9199  11.382  -0.272   6.065 -0.4476  0.1965  0.1118
    1DIPC   C4A 9200  11.082  -0.489   6.030 -0.0395 -0.0633  0.1231
    1DIPC   C1B 9201  10.818   0.499   6.176 -0.2007 -0.0810  0.0503
    1DIPC   D2B 9202  10.881   0.303   5.687  0.2449 -0.0729 -0.0573
    1DIPC   D3B 9203  11.296   0.147   5.618  0.0487 -0.0277  0.0843
    1DIPC   C4B 9204  11.552   0.193   5.270 -0.2734 -0.1455  0.1534
    1DIPC   NC3 9205  21.437   2.363   6.437  0.0555 -0.0656  0.2367
    1DIPC   PO4 9206  21.006   2.358   6.329  0.1965 -0.4194  0.1426
    1DIPC   GL1 9207  21.121   2.398   5.889  0.0954  0.1469 -0.0216
    1DIPC   GL2 9208  21.332   2.613   5.917  0.1492 -0.1144  0.2923
    1DIPC   C1A 9209  21.464   2.242   5.546  0.1783  0.3786  0.3189
    1DIPC   D2A 9210  21.778   1.998   5.173  0.0180 -0.0758  0.0304
    1DIPC   D3A 9211  21.553   1.758   4.958  0.1054 -0.2614 -0.1263
    1DIPC   C4A 9212  21.211   1.694   5.089  0.0590  0.2322  0.0169
    1DIPC   C1B 9213  21.171   3.063   6.021  0.2042 -0.0031 -0.0435
    1DIPC   D2B 9214  21.386   3.432   5.832  0.1465 -0.2147 -0.3085
    1DIPC   D3B 9215  21.679   3.720   5.966  0.2272 -0.1749 -0.0566
    1DIPC   C4B 9216  22.084   3.735   5.809  0.2807 -0.0153  0.0587
    1DIPC   NC3 9217  10.327  22.466   6.439  0.2067 -0.1203  0.0289
    1DIPC   PO4 9218  10.628  22.599   6.210 -0.3149  0.4135  0.0301
    1DIPC   GL1 9219  10.742  22.416   5.770  0.0351  0.4005 -0.0921
    1DIPC   GL2 9220  11.104  22.426   5.708 -0.1773 -0.0979  0.1738
    1DIPC   C1A 9221  10.445  22.594   5.440  0.0208 -0.1546 -0.1403
    1DIPC   D2A 9222  10.430  22.478   5.033  0.4585  0.0007  0.2421
    1DIPC   D3A 9223  10.132  22.749   4.732  0.2617 -0.2785 -0.4227
    1DIPC   C4A 9224   9.936  22.445   4.379  0.1973 -0.0233  0.2044
    1DIPC   C1B 9225  10.978  22.411   5.275  0.1269 -0.0837 -0.0697
    1DIPC   D2B 9226  10.866  22.306   4.886 -0.1634  0.2219 -0.1936
    1DIPC   D3B 9227  10.832  22.659   4.601  0.2209  0.4821 -0.0619
    1DIPC   C4B 9228  10.822  22.492   4.147  0.0312  0.0884 -0.1239
    1DIPC   NC3 9229   3.786   3.223   6.896  0.1802 -0.0614  0.2179
    1DIPC   PO4 9230   3.935   3.467   6.588 -0.0373 -0.0164  0.1742
    1DIPC   GL1 9231   4.090   3.711   6.256  0.1795 -0.1806 -0.1573
    1DIPC   GL2 9232   4.085   4.084   6.195 -0.3429  0.1063  0.1624
    1DIPC   C1A 9233   4.437   3.697   5.894 -0.1455  0.0578 -0.2118
    1DIPC   D2A 9234   4.594   3.720   5.465 -0.1217 -0.2149 -0.1668
    1DIPC   D3A 9235   4.329   3.730   5.127 -0.0160  0.3156 -0.0872
    1DIPC   C4A 9236   4.082   4.110   5.043 -0.0010  0.0320 -0.2685
    1DIPC   C1B 9237   3.918   3.880   5.856  0.2014 -0.2062  0.2703
    1DIPC   D2B 9238   4.045   3.584   5.604  0.2849 -0.1181  0.3024
    1DIPC   D3B 9239   3.924   3.465   5.145 -0.1943  0.1212 -0.0090
    1DIPC   C4B 9240   3.846   3.090   4.985  0.1559 -0.0740 -0.1460
    1DIPC   NC3 9241   9.371  22.166   5.741 -0.0625 -0.2115 -0.1035
    1DIPC   PO4 9242   9.518  21.746   5.963 -0.1580 -0.0582  0.1165
    1DIPC   GL1 9243   9.463  21.616   5.570  0.4159  0.3449  0.1178
    1DIPC   GL2 9244   9.231  21.721   5.382  0.3180 -0.3731 -0.0142
    1DIPC   C1A 9245   9.414  21.307   5.241  0.0479  0.0397 -0.0546
    1DIPC   D2A 9246   9.573  21.146   4.850  0.0173  0.0315  0.2252
    1DIPC   D3A 9247   9.332  21.452   4.568 -0.2727  0.0923 -0.0684
    1DIPC   C4A 9248   8.903  21.656   4.754  0.1780  0.1026 -0.2534
    1DIPC   C1B 9249   9.341  21.769   4.954 -0.3417 -0.0748  0.1764
    1DIPC   D2B 9250   9.710  22.003   4.743  0.1836  0.1283  0.2557
    1DIPC   D3B 9251  10.108  21.922   4.549  0.0045  0.3851 -0.0088
    1DIPC   C4B 9252  10.028  21.502   4.571 -0.2427 -0.1966  0.1101
    1DIPC   NC3 9253   1.335   5.671   6.806 -0.1614 -0.1295 -0.2478
    1DIPC   PO4 9254   1.706   5.382   6.742 -0.1018  0.0938 -0.2907
    1DIPC   GL1 9255   1.740   5.491   6.467 -0.1415 -0.0044  0.3475
    1DIPC   GL2 9256   1.704   5.804   6.489 -0.0069  0.2648 -0.1275
    1DIPC   C1A 9257   1.899   5.465   5.930  0.0773 -0.0495  0.2161
    1DIPC   D2A 9258   1.663   5.602   5.592  0.2029  0.0358  0.3540
    1DIPC   D3A 9259   1.658   5.421   5.064  0.1644 -0.3046 -0.0650
    1DIPC   C4A 9260   1.786   5.753   4.760  0.2505  0.0116 -0.1056
    1DIPC   C1B 9261   1.460   5.756   6.082  0.0845  0.0693  0.2531
    1DIPC   D2B 9262   1.178   5.969   5.831 -0.1646 -0.1668  0.4307
    1DIPC   D3B 9263   1.098   5.524   5.889  0.0262  0.0066 -0.0093
    1DIPC   C4B 9264   1.433   5.228   6.009  0.2125 -0.0603 -0.4267
    1DIPC   NC3 9265  22.686  11.484   6.503 -0.1919 -0.1979  0.1022
    1DIPC   PO4 9266  23.069  11.405   6.208 -0.1093  0.5081  0.0901
    1DIPC   GL1 9267  22.818  11.561   5.878 -0.0144 -0.2474 -0.1359
    1DIPC   GL2 9268  22.999  11.499   5.636  0.0381 -0.0999 -0.1201
    1DIPC   C1A 9269  22.584  11.659   5.487 -0.2889 -0.0481 -0.1484
    1DIPC   D2A 9270  22.427  11.800   4.990  0.1938  0.1799  0.4501
    1DIPC   D3A 9271  22.656  11.920   4.543  0.1873 -0.1149  0.1103
    1DIPC   C4A 9272  22.933  11.668   4.366 -0.1397 -0.0216 -0.1098
    1DIPC   C1B 9273  22.866  11.322   5.260  0.0039  0.0000  0.2529
    1DIPC   D2B 9274  22.736  11.435   4.799 -0.2244  0.2083  0.1272
    1DIPC   D3B 9275  22.795  11.133   4.475  0.1554 -0.2100 -0.1148
    1DIPC   C4B 9276  22.716  10.774   4.474  0.1040 -0.1528 -0.0036
    1DIPC   NC3 9277   7.691   0.512   6.923 -0.0343  0.3055 -0.0027
    1DIPC   PO4 9278   8.157   0.432   6.890  0.1448 -0.1398 -0.0516
    1DIPC   GL1 9279   8.243   0.324   6.527 -0.1786 -0.2068  0.0597
    1DIPC   GL2 9280   8.501   0.184   6.447 -0.0579 -0.1901  0.3282
    1DIPC   C1A 9281   8.048   0.422   6.130 -0.2043 -0.2623 -0.0066
    1DIPC   D2A 9282   8.102   0.531   5.770 -0.1215  0.0289 -0.1565
    1DIPC   D3A 9283   7.839   0.394   5.486 -0.0991 -0.2877 -0.1016
    1DIPC   C4A 9284   7.453   0.390   5.565  0.0312  0.2631 -0.2209
    1DIPC   C1B 9285   8.730   0.493   6.238  0.1851 -0.0028  0.0339
    1DIPC   D2B 9286   8.977   0.755   5.884  0.0430 -0.1563 -0.3181
    1DIPC   D3B 9287   9.066   0.738   5.467 -0.0667 -0.2045  0.0614
    1DIPC   C4B 9288   9.440   0.780   5.271  0.0211 -0.1451 -0.0817
    1DIPC   NC3 9289  26.868   1.994   6.788 -0.2715 -0.0368 -0.2208
    1DIPC   PO4 9290  26.964   2.354   6.495  0.2247  0.0888 -0.2792
    1DIPC   GL1 9291  27.191   2.325   6.100 -0.1030  0.0663  0.0552
    1DIPC   GL2 9292  27.320   2.019   5.970 -0.0300 -0.1939  0.0412
    1DIPC   C1A 9293  27.581   2.456   5.905 -0.3087  0.0639 -0.2194
    1DIPC   D2A 9294  27.947   2.301   5.981  0.0791  0.2615 -0.0448
    1DIPC   D3A 9295  28.226   2.483   5.719 -0.2034 -0.0563 -0.0577
    1DIPC   C4A 9296  28.252   2.826   5.419  0.1845  0.0857 -0.1621
    1DIPC   C1B 9297  26.978   1.985   5.703 -0.3835  0.1003 -0.0101
    1DIPC   D2B 9298  26.776   2.338   5.415 -0.0524 -0.2558  0.1350
    1DIPC   D3B 9299  27.186   2.628   5.186  0.0634 -0.1890 -0.0233
    1DIPC   C4B 9300  27.202   2.679   4.716  0.2794 -0.0344  0.0304
    1DIPC   NC3 9301  13.350  28.681   7.113 -0.0136 -0.1156 -0.0920
    1DIPC   PO4 9302  13.854  28.771   7.145  0.1842 -0.1676  0.0100
    1DIPC   GL1 9303  13.882  28.732   6.592  0.0417  0.1746 -0.0684
    1DIPC   GL2 9304  13.876  28.971   6.337 -0.0533 -0.3910  0.0660
    1DIPC   C1A 9305  13.687  28.409   6.303 -0.0750 -0.2297 -0.3389
    1DIPC   D2A 9306  13.585  28.455   5.762 -0.1302  0.2102 -0.4850
    1DIPC   D3A 9307  13.505  28.032   5.579 -0.0156 -0.1450  0.1048
    1DIPC   C4A 9308  13.460  27.767   5.220 -0.0252  0.3257  0.0229
    1DIPC   C1B 9309  13.644  28.972   5.931 -0.1788 -0.0617 -0.2253
    1DIPC   D2B 9310  13.287  28.820   5.816  0.2126 -0.1375  0.0659
    1DIPC   D3B 9311  13.253  29.067   5.378 -0.0282  0.1468 -0.0534
    1DIPC   C4B 9312  13.303  29.553   5.163 -0.2360 -0.0199 -0.2226
    1DIPC   NC3 9313   5.313   6.074   6.816  0.2517 -0.4029 -0.0882
    1DIPC   PO4 9314   5.675   5.926   6.797 -0.1266 -0.1276  0.1630
    1DIPC   GL1 9315   5.580   5.880   6.426 -0.0314  0.1248 -0.1169
    1DIPC   GL2 9316   5.410   6.103   6.350  0.2154 -0.2272  0.3223
    1DIPC   C1A 9317   5.883   5.805   6.002  0.1360  0.2442 -0.0075
    1DIPC   D2A 9318   6.336   5.739   5.835 -0.0015  0.0501  0.1200
    1DIPC   D3A 9319   6.566   5.800   6.122  0.1633 -0.0658 -0.1803
    1DIPC   C4A 9320   7.008   5.867   5.947 -0.0318 -0.0594 -0.1410
    1DIPC   C1B 9321   5.542   6.201   6.060 -0.2896  0.2660  0.1519
    1DIPC   D2B 9322   5.762   6.371   5.741 -0.0970 -0.2622  0.0069
    1DIPC   D3B 9323   6.126   6.635   5.560 -0.0859 -0.3532  0.0429
    1DIPC   C4B 9324   6.370   6.434   5.262 -0.0268  0.2115  0.0604
    1DIPC   NC3 9325  23.562  29.591   6.852 -0.1617  0.0499  0.0395
    1DIPC   PO4 9326  23.956  29.804   6.758  0.3074  0.1919 -0.3899
    1DIPC   GL1 9327  24.065  29.972   6.423  0.2758 -0.1676  0.0210
    1DIPC   GL2 9328  24.171  29.697   6.161  0.0448 -0.0981 -0.2721
    1DIPC   C1A 9329  23.941  30.180   6.093  0.3007 -0.0605  0.0255
    1DIPC   D2A 9330  23.690  30.086   5.787  0.3466 -0.2191 -0.2861
    1DIPC   D3A 9331  23.714  30.416   5.407 -0.2997  0.1379 -0.0484
    1DIPC   C4A 9332  23.978  30.519   5.174  0.0258 -0.0983  0.0141
    1DIPC   C1B 9333  24.402  29.354   6.085 -0.2630 -0.1242 -0.2694
    1DIPC   D2B 9334  24.318  28.961   5.870 -0.1092  0.1603 -0.1758
    1DIPC   D3B 9335  24.472  29.012   5.450  0.3303 -0.1258  0.0477
    1DIPC   C4B 9336  24.609  29.361   5.186 -0.0870  0.1299  0.2645
    1DIPC   NC3 9337   1.217  29.606   6.507 -0.0412  0.0171 -0.0265
    1DIPC   PO4 9338   1.690  29.524   6.487  0.1130  0.1700  0.3095
    1DIPC   GL1 9339   1.569  29.520   6.085  0.6253 -0.0382  0.0609
    1DIPC   GL2 9340   1.468  29.855   6.146 -0.1076  0.0965  0.1395
    1DIPC   C1A 9341   1.389  29.271   5.755  0.2526  0.0043  0.0131
    1DIPC   D2A 9342   1.243  28.932   5.814 -0.0746  0.0214  0.2003
    1DIPC   D3A 9343   0.891  29.002   5.489 -0.3700  0.1335 -0.2061
    1DIPC   C4A 9344   1.157  29.331   5.237  0.0376  0.1163  0.2889
    1DIPC   C1B 9345   1.750  30.106   6.101  0.2240 -0.3211  0.0912
    1DIPC   D2B 9346   1.868  30.422   5.859 -0.1238 -0.3321 -0.1025
    1DIPC   D3B 9347   1.671  30.688   5.624 -0.0002  0.0593  0.1751
    1DIPC   C4B 9348   1.679  31.165   5.610 -0.5173  0.1266 -0.0217
    1DIPC   NC3 9349   0.885   6.934   6.886  0.2229 -0.0332 -0.1909
    1DIPC   PO4 9350   1.265   6.844   6.671  0.0896 -0.1773  0.2249
    1DIPC   GL1 9351   1.203   7.028   6.254  0.2570 -0.0058 -0.1709
    1DIPC   GL2 9352   1.458   7.127   6.311  0.1434  0.1404  0.2603
    1DIPC   C1A 9353   1.247   6.986   5.855 -0.2081  0.2612 -0.2610
    1DIPC   D2A 9354   1.290   7.359   5.507 -0.0457 -0.3246 -0.0164
    1DIPC   D3A 9355   1.682   7.603   5.526 -0.0557  0.0687  0.0034
    1DIPC   C4A 9356   1.604   7.970   5.471 -0.0379 -0.0770 -0.2403
    1DIPC   C1B 9357   1.681   7.252   5.884 -0.1181 -0.1418  0.1068
    1DIPC   D2B 9358   1.772   6.971   5.470  0.0448 -0.1468  0.1698
    1DIPC   D3B 9359   2.119   7.365   5.346  0.0154 -0.1727  0.1870
    1DIPC   C4B 9360   2.178   7.552   4.859 -0.1097 -0.1689 -0.0702
    1DIPC   NC3 9361  19.835  24.831   7.188 -0.0281 -0.1532  0.1493
    1DIPC   PO4 9362  19.959  24.839   6.732  0.0367 -0.0093 -0.2239
    1DIPC   GL1 9363  19.836  24.974   6.444 -0.2693 -0.0086  0.2329
    1DIPC   GL2 9364  19.785  25.380   6.426 -0.0883  0.0105 -0.2288
    1DIPC   C1A 9365  19.976  24.993   6.031 -0.0583  0.0351  0.0642
    1DIPC   D2A 9366  19.940  24.751   5.670 -0.3599  0.0178 -0.0076
    1DIPC   D3A 9367  20.221  25.170   5.635  0.1987 -0.1449  0.0213
    1DIPC   C4A 9368  20.445  25.153   5.336 -0.1215 -0.1246 -0.1556
    1DIPC   C1B 9369  19.642  25.404   5.970 -0.0061 -0.0285 -0.0507
    1DIPC   D2B 9370  19.680  25.349   5.557 -0.0087  0.4264 -0.3581
    1DIPC   D3B 9371  19.344  25.297   5.361 -0.0266 -0.0456 -0.2620
    1DIPC   C4B 9372  19.185  25.634   5.083  0.0687  0.0567 -0.0058
    1DIPC   NC3 9373   2.742  25.449   6.052 -0.1898  0.0376 -0.0002
    1DIPC   PO4 9374   3.076  25.709   5.859 -0.0436 -0.0243  0.4571
    1DIPC   GL1 9375   3.002  25.932   5.491 -0.0072 -0.0624 -0.0243
    1DIPC   GL2 9376   2.885  25.739   5.173 -0.1468  0.0912  0.1855
    1DIPC   C1A 9377   3.324  26.123   5.267 -0.0643 -0.0146 -0.2063
    1DIPC   D2A 9378   3.525  26.322   4.967  0.2269  0.0954 -0.1912
    1DIPC   D3A 9379   3.590  26.681   5.120 -0.1814  0.3329  0.1277
    1DIPC   C4A 9380   3.984  27.097   5.059  0.1450  0.0261 -0.2230
    1DIPC   C1B 9381   3.268  25.687   4.965  0.0937 -0.1121  0.1581
    1DIPC   D2B 9382   3.672  25.446   4.803 -0.2415  0.1665 -0.1596
    1DIPC   D3B 9383   3.717  25.466   4.401  0.0425 -0.1911 -0.0381
    1DIPC   C4B 9384   4.131  25.261   4.236 -0.2125  0.0490  0.0262
    1DIPC   NC3 9385  25.013  26.202   6.680  0.2398  0.1375  0.2496
    1DIPC   PO4 9386  25.423  26.198   6.602  0.0800  0.0137 -0.1031
    1DIPC   GL1 9387  25.455  26.132   6.111  0.1675 -0.0501  0.0152
    1DIPC   GL2 9388  25.306  26.321   5.956  0.1024  0.0446 -0.0573
    1DIPC   C1A 9389  25.737  26.155   5.789 -0.1579  0.0123  0.0481
    1DIPC   D2A 9390  25.812  26.222   5.399  0.1622 -0.1014  0.0731
    1DIPC   D3A 9391  26.060  25.858   5.495  0.2128 -0.1116  0.1387
    1DIPC   C4A 9392  26.118  25.531   5.161 -0.1895  0.1704  0.1260
    1DIPC   C1B 9393  25.367  26.518   5.551  0.3450 -0.1172  0.3473
    1DIPC   D2B 9394  25.504  26.520   5.081  0.1755  0.2286  0.1135
    1DIPC   D3B 9395  25.734  26.903   4.906  0.4626  0.3883  0.0093
    1DIPC   C4B 9396  25.489  27.305   5.031  0.0779  0.0440 -0.2857
    1DIPC   NC3 9397   1.185  24.998   5.659  0.2089  0.2139  0.1464
    1DIPC   PO4 9398   1.577  24.800   5.789  0.1389  0.0574 -0.0653
    1DIPC   GL1 9399   1.592  24.828   5.321 -0.3526  0.2748  0.1508
    1DIPC   GL2 9400   1.406  25.017   5.117 -0.1834 -0.0389 -0.1393
    1DIPC   C1A 9401   1.775  25.011   4.865  0.1751  0.2297  0.3890
    1DIPC   D2A 9402   1.858  25.087   4.436 -0.0421  0.0449  0.1550
    1DIPC   D3A 9403   2.005  25.400   4.127  0.1454 -0.1787  0.1895
    1DIPC   C4A 9404   1.911  25.241   3.770 -0.0038  0.1282  0.2690
    1DIPC   C1B 9405   1.408  25.425   4.940  0.1908  0.1789  0.2482
    1DIPC   D2B 9406   1.090  25.609   4.662  0.4329 -0.3629 -0.2266
    1DIPC   D3B 9407   0.700  25.535   4.497  0.1367 -0.0268  0.0777
    1DIPC   C4B 9408   0.481  25.348   4.664  0.0108 -0.1044 -0.0364
    1DIPC   NC3 9409   0.481  10.454   6.096  0.0526  0.0341 -0.1382
    1DIPC   PO4 9410   0.680  10.767   5.931  0.3921  0.1310  0.2169
    1DIPC   GL1 9411   0.362  10.736   5.658  0.1512  0.0777  0.3045
    1DIPC   GL2 9412   0.138  11.008   5.723 -0.0124 -0.0719 -0.3638
    1DIPC   C1A 9413   0.072  10.332   5.640  0.1292  0.2609  0.0296
    1DIPC   D2A 9414  -0.001   9.895   5.483  0.1676 -0.0833 -0.0100
    1DIPC   D3A 9415   0.251  10.157   5.099  0.1670  0.2074 -0.0061
    1DIPC   C4A 9416   0.368  10.516   5.151  0.0975  0.0107 -0.1051
    1DIPC   C1B 9417  -0.120  10.747   5.460 -0.0331  0.1042  0.0689
    1DIPC   D2B 9418  -0.482  10.450   5.612 -0.1272  0.2502 -0.1976
    1DIPC   D3B 9419  -0.709  10.386   5.288 -0.1788  0.1317  0.1876
    1DIPC   C4B 9420  -1.134  10.212   5.226  0.1116 -0.0094  0.1458
    1DIPC   NC3 9421  18.021   6.747   6.292  0.1922 -0.0549  0.0910
    1DIPC   PO4 9422  18.316   7.064   6.288  0.2210 -0.2114  0.0465
    1DIPC   GL1 9423  18.138   7.300   5.994  0.1062  0.3078 -0.0910
    1DIPC   GL2 9424  18.250   7.567   6.020  0.2084 -0.0363  0.2580
    1DIPC   C1A 9425  17.945   7.219   5.571 -0.1691  0.2424  0.0755
    1DIPC   D2A 9426  18.100   7.254   5.156 -0.0396  0.1368  0.0816
    1DIPC   D3A 9427  18.292   7.292   4.765  0.0481  0.2440 -0.0508
    1DIPC   C4A 9428  18.699   7.004   4.880  0.0092  0.2196 -0.3210
    1DIPC   C1B 9429  17.951   7.822   5.881  0.0946 -0.0705 -0.1064
    1DIPC   D2B 9430  17.608   8.084   6.122 -0.2873 -0.4136 -0.2819
    1DIPC   D3B 9431  17.373   7.735   6.190 -0.1225  0.0466 -0.1212
    1DIPC   C4B 9432  16.993   7.895   5.934 -0.2820  0.2500  0.2603
    1DIPC   NC3 9433   4.314   0.303   7.151  0.1895 -0.0044  0.2560
    1DIPC   PO4 9434   4.339   0.377   6.711  0.1380  0.1241 -0.2123
    1DIPC   GL1 9435   4.512   0.378   6.317  0.1219 -0.0049 -0.0591
    1DIPC   GL2 9436   4.835   0.492   6.421 -0.0348  0.0458  0.0915
    1DIPC   C1A 9437   4.493   0.390   5.849 -0.4035 -0.0565  0.0394
    1DIPC   D2A 9438   4.731   0.534   5.484 -0.1930  0.1498  0.0653
    1DIPC   D3A 9439   4.303   0.537   5.331 -0.1891  0.1767  0.4152
    1DIPC   C4A 9440   4.178   0.530   4.953  0.2164  0.2668  0.0141
    1DIPC   C1B 9441   4.855   0.731   5.973 -0.2018  0.0789  0.0052
    1DIPC   D2B 9442   5.069   0.952   5.743  0.0225 -0.0232  0.1960
    1DIPC   D3B 9443   5.161   1.005   5.280  0.0293  0.0527  0.1515
    1DIPC   C4B 9444   5.388   1.272   4.987 -0.1524 -0.2189 -0.1471
    1DIPC   NC3 9445  12.140   9.673   7.168  0.2021  0.1286 -0.0650
    1DIPC   PO4 9446  12.058   9.220   7.067 -0.0445 -0.0868  0.2503
    1DIPC   GL1 9447  11.845   9.373   6.673  0.0401  0.1331  0.1057
    1DIPC   GL2 9448  11.481   9.318   6.677  0.0684 -0.0367 -0.0149
    1DIPC   C1A 9449  11.900   9.420   6.244 -0.0689  0.0100 -0.0348
    1DIPC   D2A 9450  11.861   9.476   5.777  0.5211 -0.1475  0.1318
    1DIPC   D3A 9451  11.889   9.197   5.414 -0.1570 -0.3069 -0.1266
    1DIPC   C4A 9452  11.662   9.291   5.110 -0.1599 -0.2470  0.0159
    1DIPC   C1B 9453  11.386   9.360   6.210  0.1207  0.0752 -0.1552
    1DIPC   D2B 9454  11.349   9.412   5.849  0.1481 -0.1116  0.0588
    1DIPC   D3B 9455  11.391   9.537   5.501  0.1477 -0.0058  0.2432
    1DIPC   C4B 9456  11.386   9.942   5.298  0.0942 -0.1652  0.0177
    1DIPC   NC3 9457   1.829  17.448   6.571  0.2949  0.1187 -0.4574
    1DIPC   PO4 9458   1.856  17.488   6.151 -0.2174 -0.1407 -0.0903
    1DIPC   GL1 9459   1.463  17.743   6.001  0.0659  0.0529 -0.0777
    1DIPC   GL2 9460   1.152  17.620   5.863  0.0008 -0.0903  0.2547
    1DIPC   C1A 9461   1.431  18.004   5.653  0.1274 -0.0032 -0.2066
    1DIPC   D2A 9462   1.515  18.210   5.312  0.1693 -0.0309  0.2420
    1DIPC   D3A 9463   1.202  18.309   5.141 -0.0639  0.3029 -0.0132
    1DIPC   C4A 9464   1.246  18.328   4.698 -0.2703 -0.1654 -0.0342
    1DIPC   C1B 9465   1.135  17.757   5.360  0.1566  0.3796  0.0493
    1DIPC   D2B 9466   1.031  17.898   4.911 -0.1122  0.1580 -0.0615
    1DIPC   D3B 9467   1.248  17.854   4.578  0.1620  0.0740 -0.5215
    1DIPC   C4B 9468   1.169  18.067   4.226 -0.2063 -0.0879 -0.1721
    1DIPC   NC3 9469  23.051  14.289   6.255 -0.2514  0.0980 -0.0594
    1DIPC   PO4 9470  23.467  14.473   6.196  0.1949 -0.0916  0.1839
    1DIPC   GL1 9471  23.354  14.311   5.823 -0.1868  0.1330 -0.2984
    1DIPC   GL2 9472  22.987  14.284   5.786 -0.0394  0.1669 -0.1822
    1DIPC   C1A 9473  23.375  14.163   5.416 -0.0057 -0.0764 -0.1403
    1DIPC   D2A 9474  23.212  14.034   5.047  0.3673 -0.0602  0.0124
    1DIPC   D3A 9475  23.364  14.146   4.649 -0.0071  0.0283 -0.2657
    1DIPC   C4A 9476  23.424  13.856   4.303 -0.0532 -0.3053 -0.3791
    1DIPC   C1B 9477  22.944  14.400   5.337  0.0618 -0.1115  0.0292
    1DIPC   D2B 9478  22.991  14.604   4.839 -0.1065 -0.1732 -0.0537
    1DIPC   D3B 9479  22.870  14.310   4.555  0.3232  0.0913 -0.2149
    1DIPC   C4B 9480  22.685  13.894   4.621  0.1277  0.0670  0.1390
    1DIPC   NC3 9481   1.336  15.570   5.721  0.4614  0.1273  0.1198
    1DIPC   PO4 9482   1.386  15.197   5.489 -0.3552  0.1801 -0.0317
    1DIPC   GL1 9483   1.200  15.196   5.136 -0.2001  0.0547 -0.0140
    1DIPC   GL2 9484   1.221  15.496   4.923 -0.3198 -0.0548 -0.0932
    1DIPC   C1A 9485   1.079  15.132   4.662  0.1829  0.1693  0.0783
    1DIPC   D2A 9486   0.985  15.097   4.199  0.1318 -0.0954  0.1668
    1DIPC   D3A 9487   1.388  15.228   4.144 -0.0617 -0.0442  0.0030
    1DIPC   C4A 9488   1.556  15.699   4.109 -0.2561 -0.0158 -0.0359
    1DIPC   C1B 9489   1.123  15.674   4.536  0.1334  0.0234 -0.0438
    1DIPC   D2B 9490   1.229  16.106   4.383  0.0116 -0.3735 -0.1143
    1DIPC   D3B 9491   1.080  16.336   3.987 -0.0807  0.1464  0.0386
    1DIPC   C4B 9492   0.740  16.652   3.886  0.1289 -0.1841 -0.0775
    1DIPC   NC3 9493   9.425  25.517   6.120 -0.2429  0.0299 -0.1988
    1DIPC   PO4 9494   9.274  25.023   5.998  0.1912 -0.2368 -0.1872
    1DIPC   GL1 9495   9.224  25.007   5.475  0.0816  0.0079  0.0890
    1DIPC   GL2 9496   8.943  24.870   5.336  0.0506 -0.1033  0.1681
    1DIPC   C1A 9497   9.409  25.065   5.160 -0.2948 -0.0765 -0.2529
    1DIPC   D2A 9498   9.422  24.914   4.737  0.0734 -0.0362 -0.0248
    1DIPC   D3A 9499   9.314  25.378   4.754  0.1117 -0.2640 -0.1106
    1DIPC   C4A 9500   9.649  25.594   4.682  0.1516 -0.3116  0.0396
    1DIPC   C1B 9501   8.952  24.648   5.025  0.0058 -0.2673 -0.3584
    1DIPC   D2B 9502   9.032  24.418   4.560 -0.1375  0.1981 -0.0253
    1DIPC   D3B 9503   9.430  24.233   4.354 -0.2723 -0.1671  0.0169
    1DIPC   C4B 9504   9.798  24.155   4.642  0.2026  0.0259 -0.1799
    1DIPC   NC3 9505  27.524  27.942   6.330 -0.1748 -0.0967  0.2897
    1DIPC   PO4 9506  27.086  28.054   6.258 -0.0529 -0.2094 -0.1587
    1DIPC   GL1 9507  27.331  28.147   5.861 -0.0550  0.0952 -0.0108
    1DIPC   GL2 9508  27.600  28.134   5.850  0.0342  0.0594  0.1062
    1DIPC   C1A 9509  27.379  28.225   5.393 -0.0837 -0.5710  0.1413
    1DIPC   D2A 9510  27.089  28.477   5.076 -0.2852 -0.0954 -0.2267
    1DIPC   D3A 9511  26.950  28.788   5.075  0.0974 -0.1446 -0.0766
    1DIPC   C4A 9512  26.868  28.989   4.656  0.1375  0.1314  0.1075
    1DIPC   C1B 9513  27.882  28.012   5.446 -0.0044  0.0309  0.4374
    1DIPC   D2B 9514  28.215  28.106   5.082  0.1101 -0.3389  0.0832
    1DIPC   D3B 9515  28.380  27.905   4.755 -0.0887  0.0430 -0.4023
    1DIPC   C4B 9516  28.713  27.631   4.700  0.1604  0.1948 -0.1189
    1DIPC   NC3 9517   2.707   0.161   6.799 -0.0395  0.2683 -0.0715
    1DIPC   PO4 9518   2.519  -0.242   6.632 -0.0071 -0.1706  0.2945
    1DIPC   GL1 9519   2.361  -0.114   6.144  0.0046 -0.1120 -0.0551
    1DIPC   GL2 9520   2.023  -0.155   6.106  0.1402  0.2198  0.1809
    1DIPC   C1A 9521   2.204   0.167   5.787  0.5744 -0.3669 -0.0793
    1DIPC   D2A 9522   1.737   0.267   5.559 -0.1280  0.1318  0.1475
    1DIPC   D3A 9523   1.926   0.525   5.313  0.0742 -0.0018  0.0569
    1DIPC   C4A 9524   2.430   0.401   5.468 -0.2392 -0.3614 -0.0902
    1DIPC   C1B 9525   1.890  -0.167   5.712  0.3727  0.1596 -0.0522
    1DIPC   D2B 9526   2.078   0.029   5.305 -0.1128 -0.3965  0.1294
    1DIPC   D3B 9527   2.069  -0.190   4.895 -0.0038  0.1319 -0.1031
    1DIPC   C4B 9528   1.686  -0.273   4.740 -0.3563 -0.0278 -0.1036
    1DIPC   NC3 9529   0.521   0.315   6.262  0.4886 -0.1928  0.1184
    1DIPC   PO4 9530   0.465  -0.113   6.425  0.2374 -0.4780 -0.0633
    1DIPC   GL1 9531   0.410  -0.051   5.884 -0.1085  0.1309  0.1695
    1DIPC   GL2 9532   0.088  -0.014   5.806  0.2778  0.1497 -0.1016
    1DIPC   C1A 9533   0.488  -0.312   5.523 -0.1793 -0.0399 -0.2483
    1DIPC   D2A 9534   0.245  -0.335   5.112  0.0559 -0.1475 -0.0662
    1DIPC   D3A 9535   0.109  -0.388   4.677  0.3073 -0.0409  0.0055
    1DIPC   C4A 9536   0.014  -0.837   4.464 -0.3828  0.1274 -0.0337
    1DIPC   C1B 9537   0.114   0.190   5.383 -0.0365 -0.0574 -0.0122
    1DIPC   D2B 9538   0.592   0.124   5.334  0.1225 -0.0564  0.0156
    1DIPC   D3B 9539   0.458   0.256   4.988  0.1256  0.1034 -0.0454
    1DIPC   C4B 9540   0.194   0.093   4.854  0.1559 -0.0277  0.1862
    1DIPC   NC3 9541   4.532  27.492   6.769  0.0530  0.3754  0.0013
    1DIPC   PO4 9542   4.894  27.362   6.640 -0.2980 -0.3702 -0.1268
    1DIPC   GL1 9543   4.833  27.346   6.243 -0.4252  0.0328 -0.0629
    1DIPC   GL2 9544   4.699  27.658   6.245  0.1699  0.4529 -0.0840
    1DIPC   C1A 9545   5.181  27.285   6.060 -0.0117  0.0056  0.1936
    1DIPC   D2A 9546   5.354  26.818   5.879 -0.3647  0.0079 -0.2545
    1DIPC   D3A 9547   5.756  26.917   5.971  0.3980 -0.0223 -0.0281
    1DIPC   C4A 9548   5.756  27.309   6.238  0.3625  0.0131 -0.1098
    1DIPC   C1B 9549   5.028  27.899   6.193 -0.0853  0.4584  0.1311
    1DIPC   D2B 9550   5.250  28.226   6.079 -0.1506 -0.0184 -0.0569
    1DIPC   D3B 9551   5.652  28.086   5.797 -0.1458  0.0859  0.0999
    1DIPC   C4B 9552   5.594  27.784   5.423  0.1995 -0.3916  0.0719
    1DIPC   NC3 9553  18.023   4.009   6.368 -0.0537 -0.0365  0.1675
    1DIPC   PO4 9554  18.454   3.981   6.241 -0.0840 -0.0898 -0.0835
    1DIPC   GL1 9555  18.266   4.065   5.904 -0.0513  0.0666 -0.2559
    1DIPC   GL2 9556  18.137   3.762   5.851 -0.5915  0.0802 -0.0731
    1DIPC   C1A 9557  18.246   3.979   5.394  0.0157 -0.1350  0.0038
    1DIPC   D2A 9558  18.367   3.957   4.923  0.2436 -0.0551 -0.2167
    1DIPC   D3A 9559  18.011   3.687   5.042  0.1757 -0.4743  0.1317
    1DIPC   C4A 9560  17.741   3.681   4.660  0.2219 -0.2124 -0.0777
    1DIPC   C1B 9561  18.297   3.486   5.612 -0.1721 -0.0485 -0.2012
    1DIPC   D2B 9562  18.546   3.492   5.225 -0.2367  0.2794 -0.2158
    1DIPC   D3B 9563  18.823   3.110   5.103 -0.2526  0.0114 -0.2873
    1DIPC   C4B 9564  18.639   2.960   4.716  0.1031  0.0180 -0.2062
    1DIPC   NC3 9565  23.404  11.025   6.247  0.0376 -0.1289 -0.1402
    1DIPC   PO4 9566  23.280  10.646   6.022 -0.2862  0.1051  0.2256
    1DIPC   GL1 9567  23.409  10.728   5.622 -0.1332 -0.0269  0.1625
    1DIPC   GL2 9568  23.130  10.740   5.461 -0.1297 -0.2176 -0.0968
    1DIPC   C1A 9569  23.543  10.609   5.124 -0.0670  0.1992  0.2663
    1DIPC   D2A 9570  23.899  10.615   4.815  0.1194 -0.0883  0.3631
    1DIPC   D3A 9571  23.605  10.944   4.827  0.1679  0.5423  0.1369
    1DIPC   C4A 9572  23.582  11.165   4.450  0.0853  0.1481 -0.2269
    1DIPC   C1B 9573  23.389  11.109   5.226 -0.1217 -0.0064  0.0485
    1DIPC   D2B 9574  23.758  11.337   5.156 -0.0236 -0.3537  0.0065
    1DIPC   D3B 9575  23.777  11.361   5.573 -0.2406 -0.0116 -0.1086
    1DIPC   C4B 9576  24.189  11.224   5.566 -0.0465 -0.1115  0.2011
    1DIPC   NC3 9577  25.867  22.490   6.805 -0.2115 -0.0076  0.0231
    1DIPC   PO4 9578  25.786  22.245   6.518 -0.0990  0.0129  0.0621
    1DIPC   GL1 9579  25.699  22.167   6.090  0.0115  0.0504  0.0073
    1DIPC   GL2 9580  25.555  22.431   5.777  0.3453  0.1305  0.1352
    1DIPC   C1A 9581  25.708  21.968   5.640  0.0870  0.1409 -0.0412
    1DIPC   D2A 9582  25.859  22.061   5.160  0.0482 -0.2870 -0.2204
    1DIPC   D3A 9583  25.701  21.625   5.203  0.4864 -0.1733 -0.0855
    1DIPC   C4A 9584  25.503  21.427   4.857  0.1781  0.1209 -0.1083
    1DIPC   C1B 9585  25.790  22.472   5.407 -0.1357  0.0557 -0.0892
    1DIPC   D2B 9586  26.260  22.346   5.364 -0.1162 -0.0813 -0.0370
    1DIPC   D3B 9587  26.250  22.660   5.593  0.0481  0.2070  0.0958
    1DIPC   C4B 9588  26.113  23.059   5.541  0.3863  0.1201 -0.3589
    1DIPC   NC3 9589   3.702  22.771   5.798  0.3746 -0.1843  0.1716
    1DIPC   PO4 9590   3.396  23.069   5.794 -0.2317 -0.0732 -0.0075
    1DIPC   GL1 9591   3.243  22.946   5.374 -0.1660  0.0133 -0.0299
    1DIPC   GL2 9592   3.010  22.815   5.319 -0.1688 -0.0717 -0.2975
    1DIPC   C1A 9593   3.224  23.149   5.043 -0.0194  0.1627  0.0541
    1DIPC   D2A 9594   3.563  23.170   4.669 -0.1934 -0.0614  0.0336
    1DIPC   D3A 9595   3.692  22.758   4.559  0.0271 -0.3099 -0.1848
    1DIPC   C4A 9596   4.013  22.606   4.345  0.5271  0.1344 -0.2084
    1DIPC   C1B 9597   3.351  22.678   4.977  0.4780 -0.0309 -0.1935
    1DIPC   D2B 9598   3.448  22.340   4.744 -0.4516 -0.0106  0.0631
    1DIPC   D3B 9599   3.417  22.365   4.350  0.2304  0.0468  0.0338
    1DIPC   C4B 9600   3.126  22.513   4.119 -0.2173  0.1569 -0.3283
    1DIPC   NC3 9601  12.687   8.012   7.391 -0.1249  0.0332 -0.3796
    1DIPC   PO4 9602  12.510   7.616   7.175 -0.0332  0.0603 -0.1119
    1DIPC   GL1 9603  12.672   7.433   6.766 -0.2162  0.1232 -0.0418
    1DIPC   GL2 9604  12.889   7.622   6.699  0.2003 -0.0230 -0.1568
    1DIPC   C1A 9605  12.423   7.471   6.432 -0.0511 -0.1759  0.2182
    1DIPC   D2A 9606  12.208   7.378   6.031 -0.2805  0.0418 -0.3616
    1DIPC   D3A 9607  12.174   7.755   5.716  0.1521  0.1508 -0.1401
    1DIPC   C4A 9608  11.792   7.729   5.406 -0.1224  0.0241 -0.3168
    1DIPC   C1B 9609  12.920   7.561   6.329 -0.2496 -0.3632  0.0973
    1DIPC   D2B 9610  12.989   7.861   5.963  0.0955  0.0351 -0.2912
    1DIPC   D3B 9611  12.942   8.178   5.560  0.1042 -0.1625 -0.1835
    1DIPC   C4B 9612  12.748   8.323   5.162 -0.2970  0.0623  0.0686
    1DIPC   NC3 9613  24.338  16.608   6.094 -0.0820  0.2934 -0.0070
    1DIPC   PO4 9614  24.508  16.976   5.968 -0.0024  0.0348 -0.3338
    1DIPC   GL1 9615  24.509  17.150   5.613 -0.3044  0.0000  0.2252
    1DIPC   GL2 9616  24.746  17.318   5.451  0.1887  0.2575 -0.2120
    1DIPC   C1A 9617  24.301  17.225   5.245 -0.2079 -0.0599 -0.2509
    1DIPC   D2A 9618  24.184  17.212   4.855  0.0403  0.2470 -0.1382
    1DIPC   D3A 9619  24.538  16.947   4.582 -0.0005 -0.2051  0.0010
    1DIPC   C4A 9620  24.513  16.549   4.351 -0.1212 -0.1399  0.1728
    1DIPC   C1B 9621  24.728  17.030   5.143  0.2206 -0.1710 -0.0283
    1DIPC   D2B 9622  24.481  16.546   5.040 -0.0990  0.1284 -0.1396
    1DIPC   D3B 9623  24.620  16.269   5.271 -0.1699  0.2377 -0.0236
    1DIPC   C4B 9624  24.240  16.040   5.582 -0.0818 -0.0927  0.1838
    1DIPC   NC3 9625   8.735  28.177   7.234 -0.1099 -0.2678 -0.1398
    1DIPC   PO4 9626   8.368  28.311   7.049  0.2194  0.1545  0.0811
    1DIPC   GL1 9627   8.068  28.177   6.711 -0.1011 -0.0580 -0.0295
    1DIPC   GL2 9628   8.026  28.437   6.664  0.3069 -0.0924 -0.0524
    1DIPC   C1A 9629   7.839  28.042   6.413  0.3233 -0.0060  0.3648
    1DIPC   D2A 9630   7.531  28.095   6.096  0.0045 -0.0613  0.0339
    1DIPC   D3A 9631   7.832  28.329   5.908 -0.1442 -0.0946 -0.0993
    1DIPC   C4A 9632   8.002  28.148   5.450  0.1709  0.1072 -0.0021
    1DIPC   C1B 9633   7.840  28.585   6.368 -0.3028 -0.1880 -0.1132
    1DIPC   D2B 9634   7.522  28.554   6.204  0.1212  0.0817  0.0367
    1DIPC   D3B 9635   7.416  28.754   5.784 -0.0725  0.1455 -0.1840
    1DIPC   C4B 9636   7.655  28.586   5.428  0.2650  0.0178  0.0051
    1DIPC   NC3 9637   4.576  29.725   6.417  0.0309 -0.1162 -0.2209
    1DIPC   PO4 9638   4.062  29.682   6.552 -0.0606  0.0038  0.1057
    1DIPC   GL1 9639   3.866  30.056   6.403  0.1451  0.1550 -0.1304
    1DIPC   GL2 9640   3.567  30.198   6.321 -0.4315 -0.1473  0.1758
    1DIPC   C1A 9641   4.042  30.131   6.082  0.3144  0.2944 -0.0091
    1DIPC   D2A 9642   3.990  30.381   5.757  0.0852  0.0407  0.0503
    1DIPC   D3A 9643   3.724  30.679   6.118  0.1916  0.1424 -0.2527
    1DIPC   C4A 9644   3.425  30.646   6.445 -0.1380 -0.7110  0.2490
    1DIPC   C1B 9645   3.514  30.273   5.903 -0.1131 -0.1317 -0.1169
    1DIPC   D2B 9646   3.409  30.266   5.485  0.0841 -0.1481  0.1619
    1DIPC   D3B 9647   3.811  30.291   5.293  0.1552 -0.2522  0.0248
    1DIPC   C4B 9648   3.951  29.935   5.044  0.1332 -0.0345  0.1349
    1DIPC   NC3 9649   8.418  25.869   6.241 -0.0870 -0.2582 -0.0993
    1DIPC   PO4 9650   8.070  25.639   6.100  0.0046 -0.0251 -0.0302
    1DIPC   GL1 9651   8.167  26.013   5.806 -0.0522 -0.3111 -0.2575
    1DIPC   GL2 9652   8.448  26.158   5.879  0.0309 -0.2978 -0.0373
    1DIPC   C1A 9653   7.963  26.382   5.632  0.0785  0.2208  0.1443
    1DIPC   D2A 9654   7.800  26.526   5.226  0.1103  0.1627 -0.0289
    1DIPC   D3A 9655   7.682  26.998   5.047  0.0427  0.1069 -0.1983
    1DIPC   C4A 9656   8.099  27.226   4.859 -0.1131 -0.1073  0.1981
    1DIPC   C1B 9657   8.918  26.111   5.753 -0.1433  0.1381 -0.0795
    1DIPC   D2B 9658   9.213  26.216   5.521  0.1993 -0.1043  0.0002
    1DIPC   D3B 9659   9.126  26.504   5.191 -0.1785  0.1230  0.0552
    1DIPC   C4B 9660   8.907  26.247   4.793 -0.0839 -0.1668 -0.1735
    1DIPC   NC3 9661   0.302  11.505   6.208 -0.0607 -0.0282 -0.0300
    1DIPC   PO4 9662   0.627  11.279   6.099  0.2470 -0.1718  0.0336
    1DIPC   GL1 9663   0.695  11.160   5.662 -0.3519  0.1617  0.1996
    1DIPC   GL2 9664   0.680  11.451   5.586 -0.0084  0.1693 -0.0199
    1DIPC   C1A 9665   0.707  10.855   5.302  0.0674  0.0814 -0.0346
    1DIPC   D2A 9666   0.982  10.504   5.166  0.2248  0.1460  0.0467
    1DIPC   D3A 9667   1.117  10.098   5.101  0.0151 -0.1120 -0.1386
    1DIPC   C4A 9668   1.271   9.933   4.694 -0.3423  0.0101  0.2520
    1DIPC   C1B 9669   0.733  11.366   5.172  0.2822  0.0793 -0.0758
    1DIPC   D2B 9670   0.831  11.364   4.759 -0.0243  0.1355  0.1755
    1DIPC   D3B 9671   0.533  11.360   4.379  0.2690  0.1643  0.1272
    1DIPC   C4B 9672   0.054  11.196   4.549 -0.0267 -0.2028 -0.0938
    1DIPC   NC3 9673  22.853  28.012   6.871 -0.1878 -0.2886  0.0217
    1DIPC   PO4 9674  23.015  28.383   6.944  0.1665 -0.1557 -0.0424
    1DIPC   GL1 9675  22.997  28.705   6.721  0.0411  0.0501 -0.0982
    1DIPC   GL2 9676  23.329  28.707   6.497 -0.0427  0.0747 -0.3702
    1DIPC   C1A 9677  22.842  28.716   6.277  0.2747 -0.0735  0.0869
    1DIPC   D2A 9678  22.670  28.684   5.828  0.2141  0.0484  0.2260
    1DIPC   D3A 9679  22.694  29.067   5.898 -0.2105  0.1381  0.0147
    1DIPC   C4A 9680  22.449  29.335   5.880  0.0134 -0.2957  0.2400
    1DIPC   C1B 9681  23.302  28.657   6.098 -0.2554  0.0356 -0.2607
    1DIPC   D2B 9682  23.178  28.825   5.781  0.2743 -0.1373 -0.2536
    1DIPC   D3B 9683  23.020  28.779   5.430  0.0522 -0.0711  0.0253
    1DIPC   C4B 9684  23.306  28.557   5.272 -0.2658 -0.2863  0.2680
    1DIPC   NC3 9685   1.749  13.302   6.411 -0.0597 -0.1431 -0.1612
    1DIPC   PO4 9686   1.971  13.141   6.084 -0.0197  0.0904 -0.4499
    1DIPC   GL1 9687   2.185  12.877   5.774  0.2703 -0.1614 -0.0319
    1DIPC   GL2 9688   2.376  13.155   5.559 -0.1004 -0.2896 -0.0581
    1DIPC   C1A 9689   2.253  12.685   5.465 -0.0493 -0.0879  0.2628
    1DIPC   D2A 9690   1.985  12.424   5.215 -0.2611  0.0042  0.1381
    1DIPC   D3A 9691   2.109  12.747   4.967  0.1388 -0.1173 -0.1824
    1DIPC   C4A 9692   2.015  13.058   5.245 -0.2715 -0.1775  0.1169
    1DIPC   C1B 9693   2.542  12.984   5.151 -0.2338 -0.1746  0.0707
    1DIPC   D2B 9694   2.563  12.990   4.709  0.4054  0.1448  0.1714
    1DIPC   D3B 9695   2.146  13.230   4.652 -0.0701 -0.1379  0.0502
    1DIPC   C4B 9696   1.767  13.275   4.843 -0.4691  0.0446 -0.0565
    1DIPC   NC3 9697  25.057   0.886   6.698  0.1389 -0.1559 -0.1880
    1DIPC   PO4 9698  25.458   1.136   6.877 -0.1705  0.0220  0.4011
    1DIPC   GL1 9699  25.242   1.214   6.368  0.1338 -0.4612  0.1307
    1DIPC   GL2 9700  25.007   1.252   6.387 -0.1538  0.2363  0.5302
    1DIPC   C1A 9701  25.167   0.861   6.099  0.0561  0.2030 -0.0612
    1DIPC   D2A 9702  25.103   0.696   5.750 -0.2603 -0.1861 -0.0584
    1DIPC   D3A 9703  25.480   0.428   5.864 -0.2142  0.2358  0.0881
    1DIPC   C4A 9704  25.504   0.066   6.218 -0.2829 -0.1178  0.0642
    1DIPC   C1B 9705  24.642   1.533   6.253 -0.0350  0.0757  0.2723
    1DIPC   D2B 9706  24.690   1.713   5.839  0.1602 -0.2237  0.0559
    1DIPC   D3B 9707  24.273   1.715   5.608  0.1481  0.1157 -0.1640
    1DIPC   C4B 9708  24.170   1.503   5.261 -0.2416  0.1494 -0.2399
    1DIPC   NC3 9709  21.711   7.875   6.635  0.0146  0.1518  0.0699
    1DIPC   PO4 9710  21.974   7.582   6.420 -0.0183  0.0921 -0.0436
    1DIPC   GL1 9711  21.933   7.796   6.004 -0.0860  0.2083  0.2410
    1DIPC   GL2 9712  21.999   8.163   5.847  0.0936  0.0264  0.2044
    1DIPC   C1A 9713  21.834   7.801   5.548 -0.2653  0.2150  0.1025
    1DIPC   D2A 9714  21.739   7.943   5.307  0.1424  0.0139 -0.0920
    1DIPC   D3A 9715  21.812   8.068   4.887  0.1679  0.2334  0.1941
    1DIPC   C4A 9716  22.082   7.739   4.724  0.0269  0.1101  0.0181
    1DIPC   C1B 9717  22.103   8.264   5.423 -0.3511  0.0555  0.0041
    1DIPC   D2B 9718  22.209   8.359   4.985 -0.1645  0.0317  0.0078
    1DIPC   D3B 9719  22.674   8.432   4.861 -0.2798 -0.2922  0.0775
    1DIPC   C4B 9720  23.096   8.304   5.022  0.1343  0.1848 -0.1074
    1DIPC   NC3 9721   1.506  16.466   6.000 -0.0401  0.3943  0.0931
    1DIPC   PO4 9722   1.379  16.015   5.952 -0.0256  0.1742 -0.3207
    1DIPC   GL1 9723   1.223  16.275   5.515  0.3081 -0.0819  0.0404
    1DIPC   GL2 9724   1.395  16.289   5.170  0.2424 -0.0446  0.1371
    1DIPC   C1A 9725   1.027  16.604   5.260 -0.1497  0.2969  0.0284
    1DIPC   D2A 9726   0.800  16.962   5.121  0.0290  0.0064  0.1577
    1DIPC   D3A 9727   0.931  16.759   4.767  0.1221 -0.1124  0.3790
    1DIPC   C4A 9728   0.535  16.728   4.577  0.2255  0.2265  0.1528
    1DIPC   C1B 9729   1.383  16.497   4.734 -0.0148  0.0533  0.1369
    1DIPC   D2B 9730   1.256  16.606   4.381 -0.2104  0.0700  0.0113
    1DIPC   D3B 9731   1.557  16.699   4.143 -0.1891  0.0470  0.1429
    1DIPC   C4B 9732   1.938  16.722   4.315  0.3166 -0.2026 -0.0235
    1DIPC   NC3 9733  12.925   8.933   7.649 -0.1513 -0.2600  0.3211
    1DIPC   PO4 9734  13.001   9.264   7.231  0.3013  0.0960 -0.2438
    1DIPC   GL1 9735  12.961   9.009   6.849  0.0647 -0.2242  0.1135
    1DIPC   GL2 9736  13.270   8.811   6.719 -0.1139 -0.1820  0.1524
    1DIPC   C1A 9737  12.817   8.887   6.510 -0.1586  0.0039 -0.2010
    1DIPC   D2A 9738  12.705   8.834   6.113  0.3164 -0.4322 -0.1489
    1DIPC   D3A 9739  12.729   8.678   5.623 -0.1983  0.1021  0.1884
    1DIPC   C4A 9740  12.969   8.767   5.279 -0.1327 -0.1301 -0.0278
    1DIPC   C1B 9741  13.046   8.472   6.474  0.0145  0.0327  0.0780
    1DIPC   D2B 9742  12.807   8.078   6.432  0.2246  0.1514 -0.2069
    1DIPC   D3B 9743  13.243   8.041   6.322 -0.1694 -0.0565  0.0147
    1DIPC   C4B 9744  13.315   8.247   5.982 -0.2766  0.3005  0.3048
    1DIPC   NC3 9745  24.181  25.549   6.439  0.1875 -0.0336  0.0329
    1DIPC   PO4 9746  24.517  25.341   6.650 -0.0799 -0.1934  0.2166
    1DIPC   GL1 9747  24.571  25.185   6.232 -0.1347 -0.1253 -0.1035
    1DIPC   GL2 9748  24.756  25.472   6.098 -0.0322 -0.0630 -0.2972
    1DIPC   C1A 9749  24.371  25.186   5.828 -0.0537  0.1575  0.0432
    1DIPC   D2A 9750  24.407  25.140   5.373  0.0081  0.1034 -0.2273
    1DIPC   D3A 9751  24.374  25.400   4.929 -0.4278  0.1309 -0.1146
    1DIPC   C4A 9752  24.293  25.094   4.685 -0.0373  0.2109  0.0004
    1DIPC   C1B 9753  24.862  25.085   5.833  0.1747  0.1199 -0.0917
    1DIPC   D2B 9754  25.027  24.934   5.478 -0.0488 -0.1540 -0.1655
    1DIPC   D3B 9755  24.908  25.253   5.289  0.1251  0.0687  0.1041
    1DIPC   C4B 9756  25.020  25.445   4.792 -0.0892 -0.1557  0.2272
    1DIPC   NC3 9757  29.341  21.080   6.033 -0.1162 -0.1471  0.1476
    1DIPC   PO4 9758  29.717  21.361   6.046  0.1500 -0.0220  0.5416
    1DIPC   GL1 9759  29.940  21.480   5.669  0.0575  0.0295  0.0594
    1DIPC   GL2 9760  29.977  21.150   5.544  0.0057 -0.1929  0.1450
    1DIPC   C1A 9761  29.927  21.571   5.205  0.1898 -0.1167 -0.1218
    1DIPC   D2A 9762  29.884  21.442   4.789 -0.0400  0.2028  0.0349
    1DIPC   D3A 9763  29.648  21.705   4.788  0.2134 -0.1810 -0.1034
    1DIPC   C4A 9764  29.433  21.716   5.183  0.1775 -0.0903 -0.2236
    1DIPC   C1B 9765  29.975  20.703   5.443  0.3114  0.0888 -0.0268
    1DIPC   D2B 9766  29.962  20.242   5.562  0.1635  0.0661 -0.0872
    1DIPC   D3B 9767  30.405  20.401   5.512 -0.1626 -0.0175 -0.2134
    1DIPC   C4B 9768  30.750  20.219   5.122 -0.3362  0.0966 -0.2785
    1DIPC   NC3 9769  25.236  10.587   6.279 -0.2152 -0.1605 -0.2811
    1DIPC   PO4 9770  25.256  10.752   5.817 -0.0854  0.1985 -0.1305
    1DIPC   GL1 9771  25.114  10.938   5.535 -0.2616 -0.0992  0.1411
    1DIPC   GL2 9772  25.224  10.862   5.282  0.0788 -0.1762 -0.0385
    1DIPC   C1A 9773  24.741  11.188   5.568  0.0846  0.1928  0.3740
    1DIPC   D2A 9774  24.613  11.618   5.508 -0.1867  0.2330  0.4640
    1DIPC   D3A 9775  24.296  11.379   5.111 -0.0816 -0.2951 -0.0250
    1DIPC   C4A 9776  24.110  11.656   4.767 -0.2452  0.0481  0.0077
    1DIPC   C1B 9777  25.088  10.730   4.859  0.0976 -0.0503  0.1297
    1DIPC   D2B 9778  25.245  10.887   4.495 -0.1647 -0.1059 -0.0962
    1DIPC   D3B 9779  24.868  11.262   4.349  0.1720  0.0156 -0.0956
    1DIPC   C4B 9780  24.672  11.367   4.016  0.2119 -0.3987  0.1905
    1DIPC   NC3 9781  25.986  14.088   6.318 -0.1385 -0.0315  0.1605
    1DIPC   PO4 9782  26.237  14.120   5.936 -0.2468 -0.3544 -0.1885
    1DIPC   GL1 9783  26.093  13.946   5.598  0.0168  0.0367 -0.3253
    1DIPC   GL2 9784  25.828  13.882   5.581 -0.1434 -0.0841 -0.0733
    1DIPC   C1A 9785  26.185  13.985   5.170 -0.0114 -0.0843  0.3918
    1DIPC   D2A 9786  26.532  14.204   4.925 -0.0220 -0.0191 -0.1769
    1DIPC   D3A 9787  26.017  14.306   4.820 -0.0141  0.1875 -0.0638
    1DIPC   C4A 9788  25.784  14.503   4.637  0.1175  0.0646  0.3132
    1DIPC   C1B 9789  25.680  13.927   5.037 -0.0119 -0.1264  0.1849
    1DIPC   D2B 9790  25.324  13.876   4.979 -0.0210  0.2379  0.0843
    1DIPC   D3B 9791  25.029  13.909   4.726  0.0663  0.1461 -0.3560
    1DIPC   C4B 9792  24.933  14.286   4.515 -0.0537 -0.0227  0.0291
    1DIPC   NC3 9793  22.140   7.055   6.558 -0.1112  0.1460 -0.0464
    1DIPC   PO4 9794  22.436   7.110   6.249  0.2242  0.2102  0.1270
    1DIPC   GL1 9795  22.743   7.367   5.986 -0.0496 -0.0502  0.1527
    1DIPC   GL2 9796  23.012   7.529   6.096  0.1905  0.1268  0.0478
    1DIPC   C1A 9797  22.809   7.522   5.604  0.0893 -0.0133  0.1235
    1DIPC   D2A 9798  22.786   7.462   5.071  0.1372 -0.0571 -0.1646
    1DIPC   D3A 9799  22.925   7.656   4.698 -0.1850  0.0666  0.0112
    1DIPC   C4A 9800  23.305   7.857   4.647 -0.1697  0.6969  0.5347
    1DIPC   C1B 9801  23.401   7.328   5.838 -0.1380  0.2399  0.0747
    1DIPC   D2B 9802  23.217   7.313   5.477 -0.0001 -0.3635 -0.0301
    1DIPC   D3B 9803  23.150   7.709   5.243 -0.0576 -0.1557  0.0633
    1DIPC   C4B 9804  23.500   8.008   5.317  0.1712  0.0064  0.0884
    1DIPC   NC3 9805  22.254  20.755   6.986 -0.1907 -0.1126 -0.0636
    1DIPC   PO4 9806  22.479  21.205   6.694 -0.3335  0.0952  0.1639
    1DIPC   GL1 9807  22.197  21.080   6.550 -0.0026 -0.2614 -0.1143
    1DIPC   GL2 9808  22.032  20.815   6.387 -0.0310 -0.2342 -0.0602
    1DIPC   C1A 9809  22.048  21.270   6.169 -0.3842  0.0843 -0.1089
    1DIPC   D2A 9810  22.017  21.509   5.783  0.0616  0.2040 -0.0290
    1DIPC   D3A 9811  22.284  21.765   5.959 -0.1355  0.1092 -0.0820
    1DIPC   C4A 9812  22.386  22.142   5.862  0.0795  0.0369  0.0114
    1DIPC   C1B 9813  21.774  20.767   6.122  0.0354 -0.1781  0.0003
    1DIPC   D2B 9814  21.664  20.791   5.700 -0.0887  0.0744 -0.3380
    1DIPC   D3B 9815  22.021  20.850   5.523 -0.1132  0.0979  0.0032
    1DIPC   C4B 9816  22.304  21.145   5.491  0.0551  0.0698 -0.2803
    1DIPC   NC3 9817   2.377   4.386   6.495 -0.0259  0.0944 -0.0128
    1DIPC   PO4 9818   2.733   4.037   6.369 -0.0204 -0.1943  0.0136
    1DIPC   GL1 9819   2.658   4.197   5.978  0.3633 -0.0197  0.4487
    1DIPC   GL2 9820   2.383   4.023   5.961  0.0164 -0.0281  0.1732
    1DIPC   C1A 9821   2.970   4.260   5.656 -0.1257 -0.1452  0.0434
    1DIPC   D2A 9822   3.327   4.397   5.450  0.1868 -0.0159  0.0987
    1DIPC   D3A 9823   3.095   4.671   5.263 -0.1765  0.1706 -0.1058
    1DIPC   C4A 9824   3.132   5.150   5.272  0.2611 -0.0139  0.0961
    1DIPC   C1B 9825   2.000   4.066   5.742 -0.2721  0.2762  0.0854
    1DIPC   D2B 9826   1.531   4.323   5.713  0.3191 -0.2388  0.1093
    1DIPC   D3B 9827   1.803   4.589   5.919  0.0708 -0.4154  0.0093
    1DIPC   C4B 9828   2.276   4.518   5.838  0.0164  0.0954 -0.0253
    1DIPC   NC3 9829  28.788  24.067   6.456 -0.3423 -0.1217 -0.0724
    1DIPC   PO4 9830  28.868  23.690   6.296 -0.0641 -0.1639  0.1303
    1DIPC   GL1 9831  28.868  23.896   6.005 -0.0280 -0.0574 -0.1682
    1DIPC   GL2 9832  28.710  24.201   5.937  0.5010  0.0113  0.3965
    1DIPC   C1A 9833  28.889  23.878   5.587 -0.1938 -0.2681  0.4873
    1DIPC   D2A 9834  28.944  23.823   5.122 -0.0041  0.3128 -0.1402
    1DIPC   D3A 9835  29.113  24.144   4.869 -0.2560  0.2079  0.0056
    1DIPC   C4A 9836  28.822  24.492   4.636 -0.2035  0.0314 -0.0917
    1DIPC   C1B 9837  28.185  24.315   5.871  0.0603 -0.1367  0.0230
    1DIPC   D2B 9838  27.844  24.135   5.669 -0.0940 -0.0960 -0.0946
    1DIPC   D3B 9839  27.934  23.743   5.417 -0.1028  0.0432 -0.1755
    1DIPC   C4B 9840  28.176  23.861   4.982  0.1138 -0.1766  0.2097
    1DIPC   NC3 9841  22.488   5.650   6.221  0.1948 -0.0839  0.1589
    1DIPC   PO4 9842  22.002   5.646   6.259  0.2128  0.1496 -0.0358
    1DIPC   GL1 9843  21.829   5.520   5.862  0.0029  0.2008  0.0890
    1DIPC   GL2 9844  22.110   5.494   5.727 -0.1462  0.0724 -0.2784
    1DIPC   C1A 9845  21.710   5.332   5.457 -0.1864  0.0314  0.1332
    1DIPC   D2A 9846  21.502   5.400   4.992 -0.2325 -0.2759  0.0061
    1DIPC   D3A 9847  21.844   5.170   5.014  0.0062 -0.1366 -0.0394
    1DIPC   C4A 9848  21.722   4.755   4.892  0.1099 -0.2302 -0.2140
    1DIPC   C1B 9849  22.290   5.697   5.411 -0.2193 -0.1706  0.2302
    1DIPC   D2B 9850  22.013   5.780   5.106  0.0880 -0.1373 -0.0282
    1DIPC   D3B 9851  22.392   5.798   4.891  0.2198  0.0083 -0.1428
    1DIPC   C4B 9852  22.382   6.200   4.667 -0.0450 -0.0822 -0.0040
    1DIPC   NC3 9853   0.733  26.994   6.288  0.2276 -0.2983 -0.2597
    1DIPC   PO4 9854   0.759  26.589   6.131 -0.2853 -0.0923 -0.0412
    1DIPC   GL1 9855   0.544  26.680   5.711 -0.0026 -0.1131  0.0187
    1DIPC   GL2 9856   0.592  27.006   5.756 -0.2858  0.2673  0.1618
    1DIPC   C1A 9857   0.679  26.774   5.219  0.0103 -0.1194  0.3908
    1DIPC   D2A 9858   0.773  26.877   4.755 -0.2061 -0.1186 -0.2128
    1DIPC   D3A 9859   0.797  26.549   4.650 -0.0202  0.1284  0.1448
    1DIPC   C4A 9860   0.949  26.477   4.338 -0.2896 -0.2300 -0.2411
    1DIPC   C1B 9861   0.947  27.114   5.512 -0.2922 -0.1183  0.0358
    1DIPC   D2B 9862   1.041  27.485   5.283  0.2057 -0.3085 -0.5340
    1DIPC   D3B 9863   0.688  27.281   4.957  0.0583 -0.0892 -0.0929
    1DIPC   C4B 9864   1.075  27.316   4.742 -0.0196  0.0624 -0.0296
    1DIPC   NC3 9865   6.050  13.703   6.151  0.1293  0.2139  0.0841
    1DIPC   PO4 9866   5.619  13.601   6.190  0.2796 -0.0117 -0.0409
    1DIPC   GL1 9867   5.679  13.393   5.840 -0.0715  0.2261  0.1311
    1DIPC   GL2 9868   5.931  13.262   5.871  0.3213 -0.0387  0.0086
    1DIPC   C1A 9869   5.529  13.443   5.475  0.1201  0.2745 -0.1959
    1DIPC   D2A 9870   5.476  13.548   5.091 -0.0374  0.0343  0.0118
    1DIPC   D3A 9871   5.471  13.951   5.311 -0.2732  0.0768 -0.0514
    1DIPC   C4A 9872   5.747  14.251   5.289 -0.3405 -0.5093 -0.3459
    1DIPC   C1B 9873   5.907  13.100   5.427  0.2090  0.1988  0.0173
    1DIPC   D2B 9874   5.639  13.025   4.972  0.1824  0.0055 -0.1463
    1DIPC   D3B 9875   5.702  13.000   4.491 -0.0168  0.1062 -0.1762
    1DIPC   C4B 9876   5.554  12.645   4.374  0.0935 -0.1872  0.1177
    1DIPC   NC3 9877   9.800  23.282   5.970 -0.3649  0.2864 -0.0068
    1DIPC   PO4 9878  10.243  23.303   5.940  0.0082  0.0227 -0.1314
    1DIPC   GL1 9879  10.144  23.192   5.573 -0.2013 -0.0849  0.1110
    1DIPC   GL2 9880   9.757  23.077   5.465 -0.1799  0.1723  0.1231
    1DIPC   C1A 9881  10.344  22.993   5.159 -0.0562 -0.1005 -0.0861
    1DIPC   D2A 9882  10.512  23.095   4.765  0.3013 -0.0493  0.3518
    1DIPC   D3A 9883  10.475  23.442   4.620  0.0533 -0.0920  0.0075
    1DIPC   C4A 9884  10.341  23.587   4.239 -0.0949 -0.0792  0.1404
    1DIPC   C1B 9885   9.623  23.052   4.998  0.0214  0.0738  0.1071
    1DIPC   D2B 9886   9.990  23.247   4.665 -0.1308 -0.0169 -0.0890
    1DIPC   D3B 9887   9.519  23.197   4.552 -0.0305  0.1202 -0.3622
    1DIPC   C4B 9888   9.391  23.208   4.152 -0.1645  0.1622 -0.0542
    1DIPC   NC3 9889  12.220  22.223   5.868 -0.0457  0.1572 -0.0284
    1DIPC   PO4 9890  12.263  21.762   5.906  0.3047 -0.0966 -0.0009
    1DIPC   GL1 9891  12.102  21.829   5.483  0.1699 -0.0273  0.0806
    1DIPC   GL2 9892  11.972  22.078   5.398  0.0798 -0.1674 -0.1012
    1DIPC   C1A 9893  12.117  21.621   5.111  0.0378 -0.0063 -0.1482
    1DIPC   D2A 9894  12.157  21.701   4.722  0.1794  0.1399 -0.2023
    1DIPC   D3A 9895  11.925  21.735   4.284  0.1088 -0.0321  0.4145
    1DIPC   C4A 9896  11.486  21.515   4.213  0.2559  0.2143 -0.1113
    1DIPC   C1B 9897  11.872  22.081   4.955  0.2196 -0.0566  0.0344
    1DIPC   D2B 9898  11.817  22.166   4.571 -0.0946  0.2287 -0.2937
    1DIPC   D3B 9899  12.156  22.163   4.310  0.1053  0.2116 -0.2505
    1DIPC   C4B 9900  12.308  21.813   4.031  0.1682  0.1222  0.3664
    1DIPC   NC3 9901   5.570  17.539   5.930  0.1208 -0.2245  0.2248
    1DIPC   PO4 9902   5.916  17.440   5.768  0.4690  0.1605  0.1186
    1DIPC   GL1 9903   5.833  17.558   5.364 -0.0257 -0.1829 -0.0099
    1DIPC   GL2 9904   6.130  17.596   5.166 -0.1895  0.0403 -0.2590
    1DIPC   C1A 9905   5.650  17.809   5.072  0.0204 -0.0017  0.0385
    1DIPC   D2A 9906   5.303  17.926   4.909 -0.2643  0.2671 -0.0351
    1DIPC   D3A 9907   4.993  17.824   4.600 -0.1473  0.0621 -0.3965
    1DIPC   C4A 9908   4.911  17.885   4.105  0.2109 -0.1966 -0.2957
    1DIPC   C1B 9909   5.880  17.390   4.804  0.2518 -0.0285 -0.2143
    1DIPC   D2B 9910   5.811  17.225   4.350 -0.3274  0.1702 -0.0134
    1DIPC   D3B 9911   5.745  17.601   4.156  0.2407 -0.0711 -0.0543
    1DIPC   C4B 9912   5.991  17.723   3.809  0.0493 -0.4366  0.2721
    1DIPC   NC3 9913   7.436   9.437   7.019  0.0350 -0.2867 -0.2652
    1DIPC   PO4 9914   7.587   8.972   7.080  0.0449  0.1582  0.0170
    1DIPC   GL1 9915   7.716   9.164   6.661  0.1860 -0.3850  0.2780
    1DIPC   GL2 9916   7.980   9.042   6.736 -0.1254  0.0723 -0.0882
    1DIPC   C1A 9917   7.997   9.474   6.452  0.1758 -0.1311 -0.1843
    1DIPC   D2A 9918   8.166   9.449   6.047 -0.0594 -0.0041 -0.1794
    1DIPC   D3A 9919   8.215   9.115   5.762 -0.0491 -0.2756 -0.1582
    1DIPC   C4A 9920   8.094   9.287   5.316  0.0679 -0.0632 -0.0676
    1DIPC   C1B 9921   7.880   8.962   6.228 -0.0110 -0.2558  0.1992
    1DIPC   D2B 9922   7.818   8.804   5.855  0.2638  0.1244 -0.0307
    1DIPC   D3B 9923   7.652   8.722   5.412 -0.3091 -0.1874  0.1807
    1DIPC   C4B 9924   7.279   8.600   5.123  0.1120 -0.0928  0.0703
    1DIPC   NC3 9925   3.044  28.208   6.517  0.1469 -0.1753  0.1323
    1DIPC   PO4 9926   2.883  28.029   6.216 -0.2926 -0.0722 -0.2650
    1DIPC   GL1 9927   2.870  28.170   5.838 -0.0904 -0.0060  0.1972
    1DIPC   GL2 9928   3.084  28.226   5.757 -0.1458  0.2056  0.1834
    1DIPC   C1A 9929   2.575  28.319   5.528 -0.1454  0.1271 -0.0740
    1DIPC   D2A 9930   2.550  28.310   5.125  0.3779 -0.2842  0.0756
    1DIPC   D3A 9931   3.013  28.178   4.916  0.1153 -0.0854 -0.0515
    1DIPC   C4A 9932   3.435  28.442   4.758 -0.0563  0.1121  0.0207
    1DIPC   C1B 9933   3.212  28.577   5.701  0.0103 -0.0690 -0.1759
    1DIPC   D2B 9934   3.241  29.000   5.600 -0.6390  0.2117  0.4336
    1DIPC   D3B 9935   3.495  28.892   5.273  0.0474  0.0990  0.0001
    1DIPC   C4B 9936   3.243  28.910   4.926  0.1895 -0.0475  0.0278
    1DIPC   NC3 9937  26.593   3.242   6.354  0.1132  0.2241 -0.1352
    1DIPC   PO4 9938  26.071   3.324   6.292 -0.1557  0.1247  0.0952
    1DIPC   GL1 9939  25.710   3.400   6.126  0.1250  0.3821  0.1296
    1DIPC   GL2 9940  25.458   3.182   6.102 -0.2323 -0.0507 -0.1034
    1DIPC   C1A 9941  25.549   3.465   5.716  0.1386 -0.0035  0.1276
    1DIPC   D2A 9942  25.454   3.608   5.339  0.0143  0.0825 -0.1502
    1DIPC   D3A 9943  25.612   3.652   4.959  0.1009  0.0833 -0.2824
    1DIPC   C4A 9944  25.941   3.422   4.898 -0.0735  0.1892 -0.2337
    1DIPC   C1B 9945  25.180   3.100   5.714  0.1638  0.0862  0.1785
    1DIPC   D2B 9946  25.031   3.178   5.254 -0.0327  0.0263  0.2932
    1DIPC   D3B 9947  24.885   3.490   5.497  0.0187 -0.1360  0.0749
    1DIPC   C4B 9948  25.040   3.563   5.914 -0.1037 -0.3219  0.0022
    1DIPC   NC3 9949  15.586  27.135   6.834 -0.0718  0.1977 -0.1642
    1DIPC   PO4 9950  15.346  27.525   6.619 -0.0800 -0.1138 -0.2560
    1DIPC   GL1 9951  15.200  27.608   6.243 -0.0056 -0.1596  0.0623
    1DIPC   GL2 9952  15.000  27.381   6.058 -0.2191 -0.3852 -0.2544
    1DIPC   C1A 9953  15.187  27.648   5.704 -0.1253 -0.0648 -0.1692
    1DIPC   D2A 9954  15.139  27.624   5.293  0.0601  0.1920  0.0555
    1DIPC   D3A 9955  15.387  27.908   5.113 -0.1328  0.0507 -0.1185
    1DIPC   C4A 9956  15.810  27.830   5.049  0.0970 -0.0902  0.2400
    1DIPC   C1B 9957  14.933  27.003   6.394  0.2241 -0.1248  0.1761
    1DIPC   D2B 9958  14.670  26.673   6.196 -0.0044 -0.0035 -0.2801
    1DIPC   D3B 9959  15.173  26.520   6.358  0.0713  0.1192  0.0015
    1DIPC   C4B 9960  15.558  26.517   6.176  0.1077 -0.3100 -0.1452
    1DIPC   NC3 9961  25.152   7.230   7.063 -0.1886 -0.1391  0.0331
    1DIPC   PO4 9962  25.556   7.140   6.834  0.2731  0.0520  0.1341
    1DIPC   GL1 9963  25.486   7.079   6.351 -0.4231 -0.0410  0.2246
    1DIPC   GL2 9964  25.644   6.855   6.163  0.0875  0.1112 -0.0803
    1DIPC   C1A 9965  25.332   7.260   5.971  0.1207 -0.2368 -0.0410
    1DIPC   D2A 9966  25.282   6.979   5.554 -0.1313 -0.0755  0.5033
    1DIPC   D3A 9967  25.241   7.285   5.343  0.1375 -0.1117  0.2831
    1DIPC   C4A 9968  24.987   7.264   4.986 -0.1469  0.0068 -0.1949
    1DIPC   C1B 9969  25.649   6.619   5.697 -0.0860  0.0061 -0.2792
    1DIPC   D2B 9970  25.498   6.461   5.300 -0.0480 -0.0925  0.0778
    1DIPC   D3B 9971  25.578   6.902   5.167  0.0953 -0.1427  0.2445
    1DIPC   C4B 9972  25.451   7.091   4.834  0.1699 -0.0304 -0.2044
    1DIPC   NC3 9973  14.223  23.403   5.923 -0.0216 -0.0110  0.2821
    1DIPC   PO4 9974  14.176  23.824   6.178  0.0701 -0.2520 -0.1611
    1DIPC   GL1 9975  14.188  23.887   5.754  0.0292  0.2168 -0.1858
    1DIPC   GL2 9976  14.227  24.170   5.511 -0.1633 -0.1487 -0.3782
    1DIPC   C1A 9977  14.351  23.612   5.355  0.1524 -0.1076  0.0163
    1DIPC   D2A 9978  14.308  23.666   4.925 -0.0405 -0.4877 -0.2527
    1DIPC   D3A 9979  14.397  23.489   4.577 -0.0238 -0.2457  0.0066
    1DIPC   C4A 9980  14.052  23.215   4.556  0.1494 -0.1513 -0.3163
    1DIPC   C1B 9981  14.373  24.093   5.149 -0.2372 -0.0283 -0.0148
    1DIPC   D2B 9982  14.086  24.142   4.754 -0.1724 -0.0335  0.0633
    1DIPC   D3B 9983  14.215  24.378   4.393 -0.1111 -0.1775 -0.1290
    1DIPC   C4B 9984  14.550  24.428   4.244  0.1521 -0.0546 -0.1018
    1DIPC   NC3 9985   4.051  12.628   6.352 -0.3013  0.1196  0.0503
    1DIPC   PO4 9986   4.459  12.528   6.440 -0.2067  0.0771 -0.2209
    1DIPC   GL1 9987   4.389  12.787   6.036 -0.2451 -0.0622 -0.0379
    1DIPC   GL2 9988   4.776  12.845   5.960  0.1791  0.1029  0.1419
    1DIPC   C1A 9989   4.369  12.735   5.639  0.0077 -0.1279  0.1112
    1DIPC   D2A 9990   4.283  12.609   5.267 -0.1859 -0.1554  0.0238
    1DIPC   D3A 9991   4.395  12.502   4.836 -0.0069  0.0716  0.1171
    1DIPC   C4A 9992   4.481  12.731   4.403  0.1362 -0.2033 -0.1697
    1DIPC   C1B 9993   4.704  13.163   5.609 -0.0818 -0.1331 -0.1419
    1DIPC   D2B 9994   4.775  13.237   5.054  0.2436  0.4271 -0.1661
    1DIPC   D3B 9995   4.831  12.806   5.073 -0.0024  0.1012  0.0951
    1DIPC   C4B 9996   5.063  12.691   5.425 -0.0885 -0.3377  0.1113
    1DIPC   NC3 9997   4.810  23.472   6.018 -0.1904 -0.2386  0.0528
    1DIPC   PO4 9998   4.403  23.573   5.888 -0.2255  0.3315  0.1347
    1DIPC   GL1 9999   4.554  23.384   5.499  0.0524  0.3326 -0.0951
    1DIPC   GL210000   4.618  23.084   5.756  0.1232 -0.1822 -0.1249
    1DIPC   C1A10001   4.340  23.295   5.074 -0.0745  0.0404  0.1741
    1DIPC   D2A10002   4.027  23.198   4.809  0.2884 -0.0068 -0.0737
    1DIPC   D3A10003   3.912  23.478   4.467 -0.2634 -0.0470  0.2542
    1DIPC   C4A10004   4.214  23.569   4.128 -0.0712 -0.0904 -0.0707
    1DIPC   C1B10005   4.992  23.093   5.485 -0.1613  0.2496  0.1355
    1DIPC   D2B10006   4.851  23.347   5.035 -0.0817  0.2680 -0.0055
    1DIPC   D3B10007   4.657  23.075   4.790 -0.1054 -0.2014 -0.0475
    1DIPC   C4B10008   4.731  22.824   4.331  0.1745  0.1324 -0.0467
    1DIPC   NC310009  27.952  13.032   6.028  0.2290 -0.0270 -0.1110
    1DIPC   PO410010  28.108  12.749   5.999  0.2090 -0.0283 -0.1523
    1DIPC   GL110011  28.265  12.659   5.533 -0.2894 -0.1453  0.1020
    1DIPC   GL210012  28.465  12.958   5.507 -0.1588 -0.0940  0.0102
    1DIPC   C1A10013  28.150  12.708   5.150  0.1397 -0.0542  0.1213
    1DIPC   D2A10014  28.255  12.894   4.706 -0.1120  0.1424 -0.1557
    1DIPC   D3A10015  28.071  12.472   4.683  0.0595 -0.0835  0.2417
    1DIPC   C4A10016  27.986  12.275   4.359 -0.1985 -0.0127  0.0151
    1DIPC   C1B10017  28.728  12.614   5.452 -0.1066 -0.2107  0.1532
    1DIPC   D2B10018  28.609  12.212   5.371 -0.0556 -0.0551 -0.0963
    1DIPC   D3B10019  28.358  12.258   5.014 -0.0455  0.1092 -0.0752
    1DIPC   C4B10020  27.926  12.183   4.995  0.1050  0.0176  0.0781
    1DIPC   NC310021   4.710   1.365   6.867  0.0772 -0.0470  0.0199
    1DIPC   PO410022   4.373   1.721   6.951 -0.0468  0.1712 -0.1853
    1DIPC   GL110023   4.574   1.798   6.563 -0.0447  0.2106  0.3260
    1DIPC   GL210024   4.359   1.972   6.204 -0.1776 -0.1517 -0.0931
    1DIPC   C1A10025   4.868   1.547   6.269  0.1652 -0.2396 -0.0293
    1DIPC   D2A10026   5.152   1.152   6.285  0.1531  0.0018 -0.2518
    1DIPC   D3A10027   5.459   1.188   5.925  0.2515 -0.1863 -0.0277
    1DIPC   C4A10028   5.568   0.944   5.544 -0.1745 -0.0967  0.1661
    1DIPC   C1B10029   4.375   1.602   6.114 -0.1447  0.1151  0.1528
    1DIPC   D2B10030   4.152   1.253   6.044  0.1221 -0.1911 -0.1673
    1DIPC   D3B10031   3.898   1.148   5.709 -0.0339 -0.0615  0.2551
    1DIPC   C4B10032   4.014   0.940   5.392 -0.4255  0.2890 -0.0133
    1DIPC   NC310033  23.461   0.695   6.845 -0.0002  0.0967 -0.0056
    1DIPC   PO410034  23.317   1.048   6.890  0.0679 -0.2831  0.4012
    1DIPC   GL110035  23.336   1.115   6.499 -0.1371  0.3661  0.2988
    1DIPC   GL210036  23.281   1.030   6.162 -0.2582  0.0168 -0.0230
    1DIPC   C1A10037  23.438   1.520   6.192  0.2299  0.1343 -0.0958
    1DIPC   D2A10038  23.627   1.872   6.033 -0.0098  0.1191 -0.0603
    1DIPC   D3A10039  24.000   2.032   5.901  0.1364 -0.2536 -0.0224
    1DIPC   C4A10040  24.129   2.348   6.186  0.0102 -0.2381  0.2108
    1DIPC   C1B10041  23.123   0.680   5.842  0.0193 -0.3874  0.0889
    1DIPC   D2B10042  23.166   0.629   5.482  0.2418  0.1052 -0.1506
    1DIPC   D3B10043  22.805   0.440   5.515  0.0952  0.1259  0.2180
    1DIPC   C4B10044  22.477   0.728   5.542  0.1054 -0.2626 -0.0503
    1DIPC   NC310045  10.617   1.489   7.433  0.1338  0.1596  0.0348
    1DIPC   PO410046  10.343   1.384   7.224 -0.4023 -0.0201  0.1678
    1DIPC   GL110047  10.365   1.443   6.785  0.1845  0.5257  0.0882
    1DIPC   GL210048  10.525   1.763   6.599 -0.0826 -0.0714  0.1179
    1DIPC   C1A10049  10.234   1.255   6.473  0.0337  0.3941  0.1914
    1DIPC   D2A10050  10.385   1.444   6.173 -0.3319  0.1195 -0.2915
    1DIPC   D3A10051  10.102   1.191   5.920  0.2204 -0.0278  0.1480
    1DIPC   C4A10052  10.247   0.951   5.501 -0.1142 -0.0724 -0.0404
    1DIPC   C1B10053  10.610   1.925   6.182 -0.0191 -0.1183 -0.0007
    1DIPC   D2B10054  10.846   1.778   5.754 -0.1280 -0.1079  0.0338
    1DIPC   D3B10055  10.970   2.109   5.462  0.1372  0.2448 -0.0720
    1DIPC   C4B10056  11.193   2.463   5.719  0.1268 -0.1114 -0.2276
    1DIPC   NC310057   6.599  21.951   5.569 -0.0179  0.1448 -0.0722
    1DIPC   PO410058   6.243  22.110   5.708  0.1549 -0.1053  0.2239
    1DIPC   GL110059   6.388  22.317   5.363 -0.0901 -0.2128  0.3114
    1DIPC   GL210060   6.262  22.664   5.421  0.4428  0.1255  0.0459
    1DIPC   C1A10061   6.436  22.594   4.980  0.3988 -0.2631 -0.1853
    1DIPC   D2A10062   6.422  22.762   4.579 -0.1871 -0.0305  0.1943
    1DIPC   D3A10063   6.688  22.427   4.548 -0.2857  0.1073 -0.1395
    1DIPC   C4A10064   7.101  22.489   4.275  0.2416 -0.0282  0.4288
    1DIPC   C1B10065   6.415  22.970   5.342  0.1967  0.4146 -0.3381
    1DIPC   D2B10066   6.357  23.395   5.142 -0.3531 -0.0359 -0.1381
    1DIPC   D3B10067   6.229  23.228   4.750 -0.2576  0.4050  0.2996
    1DIPC   C4B10068   6.411  23.344   4.279 -0.2262 -0.0072 -0.0972
    1DIPC   NC310069   3.637   3.884   6.451  0.3240 -0.2344  0.0297
    1DIPC   PO410070   3.712   4.206   6.530  0.0079 -0.0631 -0.1146
    1DIPC   GL110071   3.539   4.382   6.171  0.0145 -0.1343 -0.2077
    1DIPC   GL210072   3.441   4.075   5.964  0.2138  0.0677  0.1438
    1DIPC   C1A10073   3.365   4.545   5.918 -0.0806 -0.2206  0.2115
    1DIPC   D2A10074   3.277   4.998   5.740 -0.0338  0.3554 -0.1445
    1DIPC   D3A10075   3.620   4.862   5.473 -0.1776 -0.1822  0.0975
    1DIPC   C4A10076   3.552   4.901   5.031 -0.0816 -0.0788 -0.2172
    1DIPC   C1B10077   3.390   3.889   5.660  0.0270  0.2942 -0.0509
    1DIPC   D2B10078   3.266   3.886   5.287 -0.3078 -0.4627 -0.0316
    1DIPC   D3B10079   3.647   4.000   5.234  0.0873 -0.2436 -0.1849
    1DIPC   C4B10080   3.733   4.416   5.157 -0.1414  0.3431  0.2304
    1DIPC   NC310081   5.546  21.720   6.219 -0.1221  0.1114 -0.0362
    1DIPC   PO410082   5.308  21.838   5.778  0.0854 -0.1506 -0.0082
    1DIPC   GL110083   5.294  21.910   5.306  0.1017 -0.1921  0.2047
    1DIPC   GL210084   5.372  22.257   5.162 -0.2621  0.0168 -0.3700
    1DIPC   C1A10085   5.189  21.760   4.868  0.1033 -0.4076 -0.1971
    1DIPC   D2A10086   5.261  21.848   4.425  0.1514  0.3862 -0.2606
    1DIPC   D3A10087   5.138  21.462   4.463 -0.0513 -0.0989  0.0184
    1DIPC   C4A10088   5.257  21.291   4.243  0.1303  0.0497  0.0310
    1DIPC   C1B10089   5.438  22.581   4.846 -0.1047 -0.1124  0.2043
    1DIPC   D2B10090   5.487  22.939   4.574  0.0177 -0.0914 -0.0190
    1DIPC   D3B10091   5.798  22.970   4.217  0.4421 -0.0812  0.1484
    1DIPC   C4B10092   6.196  22.956   4.059 -0.0481  0.0552  0.1236
    1DIPC   NC310093  27.367  20.020   6.517  0.0158 -0.1207 -0.1801
    1DIPC   PO410094  27.802  20.130   6.552  0.2251  0.1173  0.1905
    1DIPC   GL110095  27.874  20.067   6.021 -0.3192 -0.0839 -0.1841
    1DIPC   GL210096  27.664  20.226   5.870  0.2616 -0.0517 -0.1578
    1DIPC   C1A10097  28.080  20.008   5.688  0.0989  0.4490  0.0274
    1DIPC   D2A10098  28.170  19.939   5.288 -0.0599  0.3712  0.0520
    1DIPC   D3A10099  28.519  20.023   5.066  0.0120  0.2157 -0.1236
    1DIPC   C4A10100  28.467  20.255   4.652  0.1654 -0.0278  0.2533
    1DIPC   C1B10101  27.570  20.009   5.477  0.0752  0.1719  0.1798
    1DIPC   D2B10102  27.718  19.814   5.115  0.4242  0.1089 -0.1040
    1DIPC   D3B10103  27.410  20.017   4.738 -0.1511 -0.0213  0.0933
    1DIPC   C4B10104  27.189  19.757   4.593  0.0903 -0.3372 -0.0864
    1DIPC   NC310105  29.004  15.353   6.204  0.1240 -0.0180 -0.1861
    1DIPC   PO410106  28.572  15.214   6.121 -0.1415  0.0012 -0.0494
    1DIPC   GL110107  28.532  14.929   5.839  0.0054 -0.0930 -0.3347
    1DIPC   GL210108  28.616  14.630   5.694 -0.1480 -0.2280  0.1104
    1DIPC   C1A10109  28.369  15.075   5.423 -0.2413  0.2138  0.2014
    1DIPC   D2A10110  28.214  14.862   4.982 -0.1118 -0.0570 -0.0315
    1DIPC   D3A10111  28.399  15.284   4.786  0.1340  0.1961 -0.2580
    1DIPC   C4A10112  28.735  15.643   4.749  0.1289 -0.1183 -0.0860
    1DIPC   C1B10113  28.529  14.529   5.279  0.2621 -0.1369  0.1457
    1DIPC   D2B10114  28.114  14.400   5.154  0.4613 -0.1446 -0.1469
    1DIPC   D3B10115  27.816  14.599   4.843  0.0399 -0.1382 -0.0359
    1DIPC   C4B10116  27.760  15.077   4.877  0.3407  0.1874  0.0026
    1DIPC   NC310117   3.562  24.822   5.995 -0.2785  0.1692  0.1928
    1DIPC   PO410118   4.047  24.813   5.997 -0.0021 -0.0969  0.1237
    1DIPC   GL110119   4.140  24.663   5.533  0.1717 -0.1555 -0.0206
    1DIPC   GL210120   4.432  24.775   5.338  0.4075 -0.0206  0.0569
    1DIPC   C1A10121   4.161  24.438   5.120  0.0279  0.2015  0.2685
    1DIPC   D2A10122   4.597  24.356   5.058  0.1517 -0.0291 -0.0314
    1DIPC   D3A10123   4.641  23.796   4.923 -0.2778  0.2560  0.0007
    1DIPC   C4A10124   4.338  23.561   4.616  0.0481  0.2330 -0.0650
    1DIPC   C1B10125   4.529  24.989   4.962  0.0200 -0.0748  0.1955
    1DIPC   D2B10126   4.460  25.037   4.510 -0.0947 -0.0639  0.0031
    1DIPC   D3B10127   4.575  24.529   4.564  0.2218  0.1595  0.1907
    1DIPC   C4B10128   4.680  24.154   4.403  0.1702  0.2055 -0.1226
    1DIPC   NC310129  19.684  19.956   7.624 -0.2514  0.1201 -0.3498
    1DIPC   PO410130  19.905  20.033   7.164  0.0247  0.0877  0.2950
    1DIPC   GL110131  20.080  19.806   6.928 -0.0872 -0.0164 -0.2139
    1DIPC   GL210132  20.032  20.023   6.703 -0.3131 -0.0316 -0.1170
    1DIPC   C1A10133  20.116  19.536   6.593 -0.0434 -0.1686 -0.1201
    1DIPC   D2A10134  20.120  19.104   6.419  0.1942 -0.0970 -0.2151
    1DIPC   D3A10135  20.254  18.806   6.114  0.1070  0.0954 -0.1425
    1DIPC   C4A10136  20.379  19.024   5.742  0.1392 -0.2396 -0.3201
    1DIPC   C1B10137  20.263  19.967   6.276 -0.0616  0.0723 -0.1299
    1DIPC   D2B10138  20.688  20.020   6.241 -0.0330  0.1773  0.2217
    1DIPC   D3B10139  20.518  20.309   5.889  0.0191 -0.0163 -0.0860
    1DIPC   C4B10140  20.142  20.267   5.760 -0.2381  0.1391 -0.0159
    1DIPC   NC310141   7.559  16.437   6.450 -0.1305  0.1775 -0.0448
    1DIPC   PO410142   7.236  16.686   6.167  0.3846  0.1471 -0.0979
    1DIPC   GL110143   7.146  16.882   5.781  0.0639 -0.0695 -0.2921
    1DIPC   GL210144   6.899  16.569   5.706 -0.1952  0.0525 -0.0106
    1DIPC   C1A10145   7.105  16.858   5.290 -0.4136  0.0751  0.0348
    1DIPC   D2A10146   7.210  16.628   4.882 -0.1094  0.2633  0.0458
    1DIPC   D3A10147   7.311  16.953   4.484  0.4991 -0.1490  0.0724
    1DIPC   C4A10148   7.130  17.256   4.413 -0.0442 -0.1376 -0.0984
    1DIPC   C1B10149   7.042  16.323   5.359 -0.1348  0.3000  0.0440
    1DIPC   D2B10150   7.496  16.459   5.277  0.0187  0.0594  0.0230
    1DIPC   D3B10151   7.875  16.475   5.506 -0.2252  0.0365 -0.0170
    1DIPC   C4B10152   8.324  16.320   5.340  0.4300 -0.3044 -0.3107
    1DIPC   NC310153   6.025  29.414   6.860  0.0740 -0.0873 -0.0275
    1DIPC   PO410154   5.748  29.562   6.514 -0.1612  0.1874  0.2858
    1DIPC   GL110155   5.472  29.586   6.159  0.1910  0.0678  0.1650
    1DIPC   GL210156   5.179  29.423   6.116  0.0907 -0.3786 -0.0721
    1DIPC   C1A10157   5.420  29.667   5.709 -0.1143  0.1568  0.0701
    1DIPC   D2A10158   5.455  29.790   5.277  0.1904  0.1063 -0.1156
    1DIPC   D3A10159   5.692  29.832   4.883  0.0215  0.0948 -0.2004
    1DIPC   C4A10160   5.942  30.232   4.952 -0.0135 -0.0917 -0.1936
    1DIPC   C1B10161   5.104  29.232   5.727 -0.1352 -0.2837  0.1364
    1DIPC   D2B10162   5.081  29.017   5.403  0.0409 -0.0051 -0.0798
    1DIPC   D3B10163   4.613  29.154   5.187  0.1724 -0.0843  0.0453
    1DIPC   C4B10164   4.302  28.788   5.057  0.1253  0.0052  0.0873
    1DIPC   NC310165  29.225   1.060   6.274 -0.1299 -0.0994  0.0561
    1DIPC   PO410166  29.148   0.703   6.497  0.1936  0.1270  0.0006
    1DIPC   GL110167  28.991   0.635   6.098 -0.0170 -0.0443 -0.2430
    1DIPC   GL210168  28.672   0.494   6.136 -0.0991 -0.0365 -0.1744
    1DIPC   C1A10169  28.979   0.430   5.738 -0.0524  0.2098 -0.1152
    1DIPC   D2A10170  28.626   0.605   5.523 -0.0520  0.1674 -0.0494
    1DIPC   D3A10171  28.886   0.354   5.235  0.2462 -0.0747  0.1095
    1DIPC   C4A10172  28.989   0.573   4.895  0.1052 -0.0391  0.1118
    1DIPC   C1B10173  28.342   0.874   5.961  0.0023 -0.0646  0.0432
    1DIPC   D2B10174  28.246   1.237   5.746  0.0498 -0.0496  0.0971
    1DIPC   D3B10175  28.426   1.124   5.392  0.0821 -0.4321  0.1239
    1DIPC   C4B10176  28.523   0.845   5.037  0.2011 -0.0331  0.1647
    1DIPC   NC310177  18.899  20.514   6.761 -0.2205 -0.2306 -0.0234
    1DIPC   PO410178  19.165  20.204   6.616  0.0758  0.1050 -0.0303
    1DIPC   GL110179  19.040  20.562   6.307  0.2398 -0.1592 -0.0986
    1DIPC   GL210180  19.167  20.872   6.473  0.3814  0.0380  0.0920
    1DIPC   C1A10181  19.138  20.516   5.830 -0.1746  0.1478 -0.1847
    1DIPC   D2A10182  19.294  20.440   5.445 -0.0107 -0.1092  0.0300
    1DIPC   D3A10183  19.077  20.667   5.339  0.2358 -0.1673 -0.2766
    1DIPC   C4A10184  19.016  20.936   5.071 -0.1302  0.1528 -0.1060
    1DIPC   C1B10185  19.129  21.003   6.008 -0.1684 -0.0094  0.1310
    1DIPC   D2B10186  19.234  21.045   5.609 -0.2061  0.0255  0.1247
    1DIPC   D3B10187  19.696  20.726   5.589 -0.2463 -0.0816 -0.1352
    1DIPC   C4B10188  19.801  20.337   5.398 -0.2012  0.0098 -0.3700
    1DIPC   NC310189  26.800  15.901   6.090 -0.0440 -0.0311 -0.2157
    1DIPC   PO410190  26.667  16.183   6.120 -0.2886 -0.0792  0.1036
    1DIPC   GL110191  26.586  16.079   5.678  0.1505 -0.1405 -0.0224
    1DIPC   GL210192  26.879  15.869   5.583 -0.1053  0.2868 -0.0300
    1DIPC   C1A10193  26.405  16.225   5.441  0.0871 -0.1281 -0.0243
    1DIPC   D2A10194  26.507  16.502   5.195  0.2812  0.0616  0.3267
    1DIPC   D3A10195  26.394  16.579   4.869  0.0290  0.1767 -0.2767
    1DIPC   C4A10196  26.165  16.268   4.599  0.4200 -0.0234  0.1172
    1DIPC   C1B10197  26.820  16.081   5.164 -0.0447  0.0764 -0.0681
    1DIPC   D2B10198  26.660  16.172   4.818  0.0456  0.2443 -0.1828
    1DIPC   D3B10199  26.921  16.478   4.852  0.0132 -0.0933 -0.1530
    1DIPC   C4B10200  27.106  16.619   5.168  0.1021  0.1463  0.0062
    1DIPC   NC310201  25.523  23.505   6.805  0.0233 -0.1441 -0.1349
    1DIPC   PO410202  25.985  23.627   6.703 -0.0514  0.2624 -0.0360
    1DIPC   GL110203  25.986  23.716   6.317 -0.2096 -0.2025  0.0646
    1DIPC   GL210204  26.273  23.707   6.164  0.0757 -0.0515  0.2629
    1DIPC   C1A10205  25.887  23.675   5.836  0.1825  0.1094 -0.2552
    1DIPC   D2A10206  26.140  24.013   5.550 -0.2242 -0.1358 -0.0139
    1DIPC   D3A10207  25.855  23.909   5.312 -0.1025  0.3138  0.1247
    1DIPC   C4A10208  25.609  23.579   5.424  0.0915 -0.1013  0.0386
    1DIPC   C1B10209  26.227  24.211   5.994  0.2484 -0.2012 -0.0975
    1DIPC   D2B10210  26.514  24.569   6.009  0.0616 -0.2737 -0.2742
    1DIPC   D3B10211  26.298  24.871   5.678 -0.0689 -0.1728  0.1995
    1DIPC   C4B10212  26.363  24.898   5.304  0.0820  0.0757 -0.1277
    1DIPC   NC310213  16.687   5.184   6.069  0.2989 -0.1614  0.8212
    1DIPC   PO410214  17.059   4.984   6.083  0.0930  0.2476  0.1427
    1DIPC   GL110215  16.954   4.920   5.699  0.1098 -0.2188 -0.0467
    1DIPC   GL210216  16.907   5.256   5.518 -0.2711  0.2633 -0.1405
    1DIPC   C1A10217  16.973   4.723   5.356  0.0411 -0.0757  0.3566
    1DIPC   D2A10218  16.969   4.472   4.904  0.2953  0.1892 -0.0128
    1DIPC   D3A10219  17.292   4.195   4.739 -0.1565 -0.1544  0.2145
    1DIPC   C4A10220  17.216   4.203   4.359  0.0430 -0.0853 -0.0940
    1DIPC   C1B10221  17.068   5.551   5.248  0.2313  0.2788 -0.0368
    1DIPC   D2B10222  17.348   5.798   4.925  0.2576 -0.1258 -0.0186
    1DIPC   D3B10223  17.552   5.598   4.492 -0.0512 -0.1514 -0.2369
    1DIPC   C4B10224  17.291   5.166   4.367  0.0595  0.0800  0.4939
    1DIPC   NC310225  28.087   3.543   7.055  0.1939  0.2008  0.2084
    1DIPC   PO410226  27.754   3.611   6.753  0.1655 -0.0680 -0.1904
    1DIPC   GL110227  27.854   3.650   6.341  0.3841  0.0496 -0.3173
    1DIPC   GL210228  27.538   3.704   6.166 -0.2091  0.4764  0.0471
    1DIPC   C1A10229  28.124   3.937   6.119  0.0019  0.1013  0.0919
    1DIPC   D2A10230  28.139   4.427   5.895  0.0294 -0.1587 -0.0699
    1DIPC   D3A10231  28.195   4.311   5.532 -0.1441  0.0686  0.0589
    1DIPC   C4A10232  27.863   4.378   5.278  0.3418 -0.0054  0.0276
    1DIPC   C1B10233  27.761   3.711   5.730 -0.0575  0.0772 -0.2731
    1DIPC   D2B10234  27.890   3.910   5.343 -0.1598  0.0873 -0.0835
    1DIPC   D3B10235  27.801   3.861   4.929  0.2235  0.1317  0.1520
    1DIPC   C4B10236  27.650   3.537   4.884 -0.3241 -0.1248 -0.3518
    1DIPC   NC310237  11.073   1.734   7.332  0.3331 -0.0833  0.2531
    1DIPC   PO410238  10.652   1.834   7.116 -0.1357 -0.0107  0.2723
    1DIPC   GL110239  10.982   1.892   6.860 -0.1601 -0.1372  0.0136
    1DIPC   GL210240  11.325   1.764   6.770 -0.0954  0.1669 -0.2847
    1DIPC   C1A10241  11.020   1.699   6.344 -0.0344  0.1132  0.1630
    1DIPC   D2A10242  11.288   1.686   6.034 -0.0960  0.1993 -0.1409
    1DIPC   D3A10243  11.301   1.741   5.558  0.1084 -0.0639  0.0841
    1DIPC   C4A10244  11.324   1.430   5.217  0.1230 -0.0621 -0.2113
    1DIPC   C1B10245  11.438   1.999   6.358 -0.0381  0.0357 -0.0685
    1DIPC   D2B10246  11.468   2.127   5.937 -0.2546  0.2669  0.0391
    1DIPC   D3B10247  11.006   2.191   6.141 -0.2910  0.0319  0.2000
    1DIPC   C4B10248  10.647   2.307   5.796 -0.2985  0.3559 -0.0493
    1DIPC   NC310249  25.869   7.844   6.169 -0.0678 -0.3701 -0.0449
    1DIPC   PO410250  26.266   8.051   6.145 -0.0123  0.0248  0.0878
    1DIPC   GL110251  25.999   8.117   5.751  0.3557 -0.1511  0.0267
    1DIPC   GL210252  26.313   8.023   5.622 -0.0884 -0.0318  0.0690
    1DIPC   C1A10253  25.979   8.235   5.205 -0.2529 -0.0751 -0.2330
    1DIPC   D2A10254  26.146   8.432   4.825 -0.0110  0.4229  0.0559
    1DIPC   D3A10255  26.274   8.335   4.300 -0.0123 -0.0617  0.0340
    1DIPC   C4A10256  25.954   8.325   3.995 -0.1821  0.0970 -0.1468
    1DIPC   C1B10257  26.127   7.784   5.383  0.0149 -0.1722  0.0786
    1DIPC   D2B10258  25.774   7.741   5.111  0.0528 -0.1704 -0.0548
    1DIPC   D3B10259  25.745   7.361   5.218 -0.0353  0.2742 -0.1157
    1DIPC   C4B10260  26.018   7.133   4.939 -0.1010  0.1371  0.2025
    1DIPC   NC310261  11.802  10.648   6.846  0.1779 -0.0909  0.0728
    1DIPC   PO410262  11.993  10.315   6.882  0.0017  0.0581  0.0953
    1DIPC   GL110263  12.145  10.108   6.691  0.0249  0.1476 -0.0974
    1DIPC   GL210264  12.418   9.893   6.737 -0.1070 -0.0877 -0.0438
    1DIPC   C1A10265  12.071   9.931   6.249 -0.2729 -0.0343  0.1636
    1DIPC   D2A10266  12.155   9.868   5.776 -0.0438 -0.2783  0.0733
    1DIPC   D3A10267  12.337   9.506   5.531 -0.2077 -0.0715 -0.2248
    1DIPC   C4A10268  12.708   9.543   5.245  0.1613  0.0342  0.0088
    1DIPC   C1B10269  12.336   9.563   6.448 -0.1355  0.1131 -0.2541
    1DIPC   D2B10270  12.363   9.504   6.033  0.0138 -0.1876 -0.3093
    1DIPC   D3B10271  12.658   9.207   5.826  0.1418  0.2292 -0.0380
    1DIPC   C4B10272  12.999   9.291   5.569  0.0476  0.1944  0.1087
    1DIPC   NC310273   5.962  17.007   5.518 -0.2467  0.2697  0.3623
    1DIPC   PO410274   5.478  16.763   5.557 -0.0158 -0.0315 -0.0505
    1DIPC   GL110275   5.481  17.064   5.247 -0.1024  0.2030 -0.1215
    1DIPC   GL210276   5.637  16.934   5.028  0.1809 -0.1471 -0.1521
    1DIPC   C1A10277   5.396  17.411   5.062 -0.1804  0.0669 -0.0503
    1DIPC   D2A10278   5.434  17.536   4.533  0.0929  0.0440 -0.1986
    1DIPC   D3A10279   5.443  18.041   4.343  0.3689  0.2336  0.1130
    1DIPC   C4A10280   5.884  18.049   4.193 -0.0981  0.1658 -0.1693
    1DIPC   C1B10281   5.580  16.773   4.552 -0.2740 -0.4112 -0.0102
    1DIPC   D2B10282   5.202  16.664   4.439  0.0529  0.0264  0.1876
    1DIPC   D3B10283   4.936  16.876   4.056 -0.3262  0.0414 -0.0798
    1DIPC   C4B10284   4.551  16.891   4.004 -0.0076  0.1308  0.1689
    1DIPC   NC310285  24.161  10.645   6.272  0.3072 -0.1950 -0.1395
    1DIPC   PO410286  23.760  10.638   6.138 -0.3490  0.0886 -0.1009
    1DIPC   GL110287  23.982  10.578   5.756 -0.3345 -0.0026  0.1698
    1DIPC   GL210288  23.878  10.812   5.544  0.2589 -0.1569  0.1328
    1DIPC   C1A10289  24.304  10.453   5.465  0.0275  0.3106 -0.0704
    1DIPC   D2A10290  24.645  10.295   5.566  0.0176  0.3249 -0.0519
    1DIPC   D3A10291  24.753  10.684   5.288  0.1553  0.1092 -0.1059
    1DIPC   C4A10292  24.555  10.665   4.943 -0.1025  0.3313  0.0477
    1DIPC   C1B10293  24.196  10.891   5.160  0.1237 -0.4667 -0.2851
    1DIPC   D2B10294  24.146  11.065   4.765 -0.0575  0.3187 -0.0919
    1DIPC   D3B10295  24.482  11.005   4.636  0.0155  0.0465 -0.2786
    1DIPC   C4B10296  24.745  10.811   4.351  0.0720 -0.0314 -0.0601
    1DIPC   NC310297  24.523   5.802   6.430  0.0608  0.0193  0.3351
    1DIPC   PO410298  24.159   6.090   6.587 -0.0020 -0.0352 -0.0910
    1DIPC   GL110299  24.080   6.069   6.086  0.0541 -0.0994  0.0317
    1DIPC   GL210300  23.832   5.965   5.973  0.0511  0.1309  0.0001
    1DIPC   C1A10301  24.188   6.366   5.738 -0.0915  0.1392 -0.0163
    1DIPC   D2A10302  23.977   6.532   5.389  0.1094  0.1373  0.1449
    1DIPC   D3A10303  24.062   6.314   5.057  0.1820  0.3271 -0.1649
    1DIPC   C4A10304  24.357   6.151   4.836 -0.1369 -0.1500 -0.2196
    1DIPC   C1B10305  23.599   6.006   5.638  0.0482 -0.2440 -0.0084
    1DIPC   D2B10306  23.624   6.173   5.220  0.2300  0.1861  0.0901
    1DIPC   D3B10307  23.946   5.900   5.330  0.0870  0.0264  0.0046
    1DIPC   C4B10308  24.394   6.048   5.319  0.3065  0.0973 -0.1550
    1DIPC   NC310309  27.033  22.412   6.175 -0.0562  0.0757  0.1477
    1DIPC   PO410310  27.420  22.281   6.162 -0.1337 -0.0136 -0.0242
    1DIPC   GL110311  27.501  22.497   5.860  0.1492  0.0154  0.1832
    1DIPC   GL210312  27.465  22.192   5.646  0.0851 -0.4548  0.2751
    1DIPC   C1A10313  27.359  22.759   5.451  0.1522  0.1029 -0.1148
    1DIPC   D2A10314  27.172  22.650   4.938  0.2364  0.2169  0.0156
    1DIPC   D3A10315  27.430  22.584   4.609 -0.1036 -0.0950 -0.0897
    1DIPC   C4A10316  27.817  22.198   4.648  0.0121 -0.0320  0.2250
    1DIPC   C1B10317  27.659  21.893   5.448 -0.1763  0.0207 -0.2760
    1DIPC   D2B10318  27.323  21.626   5.468  0.0753 -0.2212 -0.0565
    1DIPC   D3B10319  27.421  21.556   5.042  0.2251 -0.1336 -0.0997
    1DIPC   C4B10320  27.508  21.819   4.683 -0.2935 -0.1157  0.0334
    1DIPC   NC310321   6.944  11.014   7.103 -0.0847  0.0887  0.0354
    1DIPC   PO410322   7.049  11.201   6.769 -0.1887  0.0157 -0.0269
    1DIPC   GL110323   7.275  11.019   6.440 -0.0007  0.0536 -0.0063
    1DIPC   GL210324   6.888  10.861   6.378 -0.1864 -0.0305 -0.2472
    1DIPC   C1A10325   7.494  10.960   6.026 -0.2424 -0.1810  0.1437
    1DIPC   D2A10326   7.669  10.963   5.651  0.0561  0.1354  0.2811
    1DIPC   D3A10327   7.684  10.696   5.353  0.1414  0.0156 -0.0058
    1DIPC   C4A10328   7.807  10.314   5.431 -0.1914  0.1178  0.0517
    1DIPC   C1B10329   6.806  10.936   5.956  0.2167 -0.1635 -0.0262
    1DIPC   D2B10330   7.150  10.968   5.617  0.0952  0.1499 -0.0633
    1DIPC   D3B10331   6.898  11.000   5.282  0.1630 -0.1950 -0.0089
    1DIPC   C4B10332   6.894  11.166   4.823  0.2980 -0.2637  0.2543
    1DIPC   NC310333   5.371  23.010   6.494  0.0309  0.0975  0.0842
    1DIPC   PO410334   5.565  22.649   6.268  0.3878  0.1721 -0.0111
    1DIPC   GL110335   5.300  22.466   5.869 -0.2059 -0.1156  0.2148
    1DIPC   GL210336   5.379  22.469   5.603  0.2031 -0.2242  0.1940
    1DIPC   C1A10337   4.866  22.652   5.745 -0.0763 -0.1413 -0.0321
    1DIPC   D2A10338   4.584  22.571   5.427  0.2393  0.1400 -0.1026
    1DIPC   D3A10339   4.568  22.965   5.267 -0.4286  0.0944 -0.1609
    1DIPC   C4A10340   4.105  22.946   5.376  0.0295 -0.0643  0.0150
    1DIPC   C1B10341   5.133  22.634   5.348  0.2148  0.1603  0.2507
    1DIPC   D2B10342   5.161  22.929   5.032 -0.3059 -0.0304  0.3554
    1DIPC   D3B10343   4.956  22.723   4.753  0.1144  0.1130 -0.0155
    1DIPC   C4B10344   5.213  22.623   4.327  0.0845  0.4907 -0.0608
    1DIPC   NC310345   7.923  22.009   5.941 -0.2205 -0.1043 -0.2296
    1DIPC   PO410346   8.294  22.253   5.643  0.0452  0.0518  0.0318
    1DIPC   GL110347   7.983  22.095   5.309  0.0656 -0.0334 -0.0139
    1DIPC   GL210348   8.062  21.909   5.068 -0.0263  0.0566 -0.4285
    1DIPC   C1A10349   7.692  22.246   5.008 -0.1000  0.0011 -0.1966
    1DIPC   D2A10350   7.553  22.415   4.611  0.0860 -0.2031  0.1447
    1DIPC   D3A10351   7.695  22.734   4.312  0.2347  0.0307  0.2515
    1DIPC   C4A10352   7.965  22.564   3.911 -0.0710 -0.1993  0.1307
    1DIPC   C1B10353   7.897  21.885   4.681 -0.2596  0.2038  0.2040
    1DIPC   D2B10354   7.814  22.074   4.261 -0.1470  0.2646 -0.1692
    1DIPC   D3B10355   7.862  21.657   4.207 -0.2489 -0.2129 -0.1380
    1DIPC   C4B10356   7.590  21.421   4.129 -0.2106 -0.0376 -0.1039
    1DIPC   NC310357  19.451  25.220   7.263 -0.1544  0.0741 -0.0165
    1DIPC   PO410358  19.286  24.802   7.172  0.1664  0.0807  0.0337
    1DIPC   GL110359  19.056  24.724   6.873 -0.2449 -0.0138  0.1208
    1DIPC   GL210360  19.155  24.404   6.743 -0.0795  0.1738  0.0693
    1DIPC   C1A10361  18.942  24.766   6.424  0.3574 -0.0125  0.0134
    1DIPC   D2A10362  18.906  25.087   6.190  0.2823  0.1233  0.0206
    1DIPC   D3A10363  19.125  25.131   5.795 -0.2090 -0.2590  0.2349
    1DIPC   C4A10364  19.426  24.838   5.591 -0.1046  0.1179 -0.3037
    1DIPC   C1B10365  19.441  24.457   6.375 -0.3373  0.0185 -0.1362
    1DIPC   D2B10366  19.421  24.860   6.161  0.0282  0.1227  0.0088
    1DIPC   D3B10367  19.305  25.267   6.391 -0.0004  0.2313 -0.4751
    1DIPC   C4B10368  19.395  25.685   6.283  0.3209 -0.1464 -0.1044
    1DIPC   NC310369  17.555   0.371   6.411  0.0287  0.0931  0.2065
    1DIPC   PO410370  17.810   0.010   6.363  0.0058  0.1166  0.0989
    1DIPC   GL110371  18.038  -0.045   6.047 -0.0255  0.0046 -0.1324
    1DIPC   GL210372  18.347  -0.304   6.142  0.0867  0.0771  0.1399
    1DIPC   C1A10373  18.094   0.015   5.608  0.0190 -0.1153 -0.0801
    1DIPC   D2A10374  18.231   0.232   5.273  0.0223 -0.0076 -0.0360
    1DIPC   D3A10375  18.281   0.535   5.605 -0.1979 -0.0987  0.0708
    1DIPC   C4A10376  18.733   0.524   5.750 -0.1518  0.1403  0.2401
    1DIPC   C1B10377  18.389  -0.378   5.711 -0.0272  0.0442 -0.3116
    1DIPC   D2B10378  18.316  -0.292   5.301  0.0364  0.0453 -0.3079
    1DIPC   D3B10379  17.822  -0.025   5.216 -0.2645 -0.1915  0.3052
    1DIPC   C4B10380  17.563  -0.097   4.918  0.0886  0.1044 -0.2951
    1DIPC   NC310381  21.297  25.257   6.942 -0.3544 -0.0336  0.1930
    1DIPC   PO410382  21.708  25.342   6.757  0.3357 -0.1232 -0.2220
    1DIPC   GL110383  21.846  25.447   6.352 -0.3660 -0.1801 -0.0122
    1DIPC   GL210384  21.827  25.752   6.240  0.3548 -0.0354 -0.1588
    1DIPC   C1A10385  21.655  25.396   5.954 -0.2390  0.1468 -0.1369
    1DIPC   D2A10386  21.511  25.559   5.525 -0.1398  0.2581 -0.2163
    1DIPC   D3A10387  21.469  25.797   5.655 -0.0424 -0.2496 -0.0169
    1DIPC   C4A10388  21.296  25.801   6.006  0.0768  0.2300 -0.0399
    1DIPC   C1B10389  21.769  26.070   5.914 -0.1097  0.1447  0.1435
    1DIPC   D2B10390  21.588  26.291   5.588 -0.1763  0.0464  0.0396
    1DIPC   D3B10391  21.452  26.182   5.207 -0.3812 -0.1478 -0.0951
    1DIPC   C4B10392  21.421  25.874   5.077  0.0585 -0.3641 -0.1923
    1DIPC   NC310393   1.931  25.094   5.520  0.0024 -0.1809  0.2380
    1DIPC   PO410394   2.046  24.645   5.507 -0.3130 -0.0661  0.1704
    1DIPC   GL110395   2.041  24.663   5.158 -0.1046 -0.1782 -0.1543
    1DIPC   GL210396   2.254  24.924   5.050  0.0259 -0.1026 -0.1545
    1DIPC   C1A10397   1.944  24.566   4.736  0.0826 -0.0408 -0.1453
    1DIPC   D2A10398   1.569  24.697   4.457  0.1258 -0.0316 -0.0745
    1DIPC   D3A10399   1.397  24.253   4.454 -0.2478 -0.1588  0.0758
    1DIPC   C4A10400   1.044  24.206   4.138  0.1057  0.2683 -0.1425
    1DIPC   C1B10401   2.361  24.912   4.689 -0.0391  0.1378  0.0213
    1DIPC   D2B10402   2.378  24.612   4.389 -0.2021 -0.1683 -0.1109
    1DIPC   D3B10403   2.407  24.905   4.142 -0.1241 -0.1530  0.1201
    1DIPC   C4B10404   2.542  25.314   4.399  0.4027  0.0314  0.1359
    1DIPC   NC310405  25.883   6.287   6.876  0.2680  0.0364  0.1774
    1DIPC   PO410406  25.500   6.149   6.580 -0.6303  0.0343  0.0878
    1DIPC   GL110407  25.335   6.326   6.265 -0.1717  0.1601  0.1841
    1DIPC   GL210408  25.220   6.601   6.282  0.3552 -0.1012  0.1303
    1DIPC   C1A10409  25.203   6.122   5.816 -0.1029  0.0873  0.1273
    1DIPC   D2A10410  25.276   5.981   5.473 -0.2406 -0.0203  0.1911
    1DIPC   D3A10411  25.289   6.087   4.976 -0.0023 -0.0644 -0.0506
    1DIPC   C4A10412  25.184   5.819   4.747  0.2173  0.0955 -0.1971
    1DIPC   C1B10413  24.921   6.488   6.087 -0.0847  0.0525 -0.1798
    1DIPC   D2B10414  24.598   6.202   5.974 -0.1622 -0.3179  0.1046
    1DIPC   D3B10415  24.818   5.954   5.624  0.0137 -0.0936  0.0566
    1DIPC   C4B10416  24.893   6.219   5.316 -0.1622  0.2248  0.0437
    1DIPC   NC310417   2.017  21.147   6.158 -0.2033 -0.3591 -0.2233
    1DIPC   PO410418   1.910  21.579   6.016  0.0439  0.1850  0.1087
    1DIPC   GL110419   1.778  21.421   5.543 -0.1698 -0.1407  0.1367
    1DIPC   GL210420   1.698  21.647   5.336  0.0171  0.1642 -0.1599
    1DIPC   C1A10421   1.508  21.113   5.200  0.1603 -0.1214  0.0744
    1DIPC   D2A10422   1.458  20.781   4.896  0.0561  0.0172  0.1657
    1DIPC   D3A10423   1.348  21.060   4.657  0.2770 -0.2201 -0.0361
    1DIPC   C4A10424   0.989  20.911   4.403 -0.0276  0.0420 -0.1263
    1DIPC   C1B10425   2.029  21.737   5.111  0.0108 -0.3928 -0.2414
    1DIPC   D2B10426   2.409  21.550   5.087  0.2173 -0.2245  0.1018
    1DIPC   D3B10427   2.517  21.116   5.172 -0.0932  0.1464 -0.0708
    1DIPC   C4B10428   2.880  20.864   5.304 -0.1985  0.2470  0.2998
    1DIPC   NC310429   1.591  24.355   5.624 -0.2810 -0.0778  0.0663
    1DIPC   PO410430   1.327  24.030   5.854 -0.0490  0.2656  0.0823
    1DIPC   GL110431   1.371  23.965   5.411 -0.1454  0.0075  0.1921
    1DIPC   GL210432   1.284  23.666   5.285  0.0979  0.0628  0.0981
    1DIPC   C1A10433   1.136  24.064   5.048  0.1500  0.1070 -0.0445
    1DIPC   D2A10434   0.800  24.257   5.086  0.0686 -0.3582  0.4127
    1DIPC   D3A10435   0.820  24.239   4.631 -0.3309 -0.1519  0.0423
    1DIPC   C4A10436   0.934  23.780   4.538 -0.0805 -0.1840  0.0191
    1DIPC   C1B10437   1.381  23.699   4.776  0.0601 -0.1975 -0.1011
    1DIPC   D2B10438   1.398  23.745   4.372 -0.1569  0.0069  0.1258
    1DIPC   D3B10439   1.495  23.980   3.923  0.1273  0.2093 -0.3082
    1DIPC   C4B10440   1.782  24.349   3.803  0.1169 -0.0525 -0.1791
    1DIPC   NC310441   4.023  21.394   5.705  0.0223 -0.1905 -0.0738
    1DIPC   PO410442   4.081  21.759   5.912 -0.0596 -0.1256 -0.3433
    1DIPC   GL110443   3.888  21.869   5.446  0.0897 -0.1623  0.1047
    1DIPC   GL210444   4.105  21.693   5.293 -0.1783  0.1125 -0.1837
    1DIPC   C1A10445   3.852  22.133   5.035  0.0009  0.0418 -0.2716
    1DIPC   D2A10446   3.931  22.235   4.617 -0.0729 -0.0667 -0.0094
    1DIPC   D3A10447   3.654  21.905   4.537  0.3582 -0.1682  0.1544
    1DIPC   C4A10448   3.456  21.959   4.084  0.0332  0.0235 -0.4482
    1DIPC   C1B10449   4.163  21.593   4.893  0.0068  0.2190 -0.0482
    1DIPC   D2B10450   4.200  21.717   4.491  0.0078 -0.1461 -0.0362
    1DIPC   D3B10451   4.080  21.357   4.423  0.0324 -0.0794  0.1103
    1DIPC   C4B10452   4.015  21.128   4.096 -0.2107 -0.1907  0.1627
    1DIPC   NC310453  25.440  15.681   6.357  0.3852 -0.3765  0.1395
    1DIPC   PO410454  25.308  16.148   6.159 -0.2945 -0.1197  0.1831
    1DIPC   GL110455  25.214  15.892   5.796  0.1964  0.2216  0.1423
    1DIPC   GL210456  25.429  15.726   5.682 -0.0785  0.1248  0.1576
    1DIPC   C1A10457  25.007  15.894   5.371 -0.0857  0.2857  0.2528
    1DIPC   D2A10458  24.938  16.037   4.938 -0.1385 -0.2031 -0.0171
    1DIPC   D3A10459  24.576  16.166   4.753 -0.1089  0.1773  0.1364
    1DIPC   C4A10460  24.228  16.088   4.983 -0.2422 -0.1503  0.4203
    1DIPC   C1B10461  25.593  15.821   5.320  0.3427  0.0154 -0.0806
    1DIPC   D2B10462  25.423  15.850   4.850  0.4789  0.1431  0.1017
    1DIPC   D3B10463  25.724  15.628   4.553  0.0265 -0.0514  0.2256
    1DIPC   C4B10464  25.555  15.677   4.143 -0.1622 -0.2916  0.0294
    1DIPC   NC310465  12.889   7.216   7.537  0.1068  0.0819  0.1799
    1DIPC   PO410466  12.934   7.086   6.989 -0.0613  0.0486  0.1210
    1DIPC   GL110467  12.859   6.938   6.558 -0.0335  0.2542  0.2772
    1DIPC   GL210468  12.704   6.609   6.625  0.0091  0.0518 -0.0277
    1DIPC   C1A10469  12.729   7.173   6.119 -0.0999 -0.0636 -0.0210
    1DIPC   D2A10470  12.658   7.440   5.789 -0.0886 -0.1659 -0.0648
    1DIPC   D3A10471  12.350   7.316   5.571 -0.0629 -0.0907  0.0649
    1DIPC   C4A10472  12.544   7.102   5.219 -0.7138  0.2684 -0.0922
    1DIPC   C1B10473  12.745   6.704   6.154  0.0753  0.0684 -0.0560
    1DIPC   D2B10474  12.609   6.893   5.707 -0.0143 -0.1544  0.1758
    1DIPC   D3B10475  12.338   6.657   5.467  0.0898  0.0222  0.0267
    1DIPC   C4B10476  12.430   6.225   5.286  0.0834  0.0234 -0.1885
    1DIPC   NC310477  21.860  11.628   6.125 -0.1043 -0.1569  0.0238
    1DIPC   PO410478  21.661  11.964   6.220  0.1114 -0.0269  0.3743
    1DIPC   GL110479  21.565  12.004   5.842 -0.0291 -0.1493 -0.1113
    1DIPC   GL210480  21.597  11.731   5.668 -0.1562  0.0494 -0.1349
    1DIPC   C1A10481  21.328  12.117   5.560  0.0715  0.0752  0.1314
    1DIPC   D2A10482  20.923  12.254   5.433 -0.1088  0.0954  0.2244
    1DIPC   D3A10483  21.165  12.283   5.079  0.1183  0.0564  0.1353
    1DIPC   C4A10484  21.078  12.563   4.728 -0.1726 -0.0178 -0.0340
    1DIPC   C1B10485  21.574  11.822   5.229 -0.0870  0.1358  0.2679
    1DIPC   D2B10486  21.555  11.999   4.834  0.0233  0.1259  0.0185
    1DIPC   D3B10487  21.521  12.314   4.706 -0.1738  0.0686  0.4242
    1DIPC   C4B10488  21.419  12.339   4.235  0.0267  0.0103 -0.0912
    1DIPC   NC310489   0.340   9.867   6.380 -0.0689 -0.2145 -0.2333
    1DIPC   PO410490   0.145   9.478   6.437 -0.0451  0.1297  0.0020
    1DIPC   GL110491   0.089   9.297   6.000 -0.4119 -0.2264 -0.0033
    1DIPC   GL210492   0.193   9.496   5.687 -0.0110  0.1472 -0.1342
    1DIPC   C1A10493  -0.131   9.135   5.569  0.2477  0.0680  0.0291
    1DIPC   D2A10494  -0.354   9.119   5.226 -0.0530  0.2917  0.0688
    1DIPC   D3A10495  -0.729   8.924   5.321  0.0582 -0.1588  0.1850
    1DIPC   C4A10496  -1.046   8.621   5.383  0.1422 -0.1362  0.0043
    1DIPC   C1B10497   0.098   9.448   5.239 -0.1586 -0.0836  0.2350
    1DIPC   D2B10498  -0.119   9.401   4.909 -0.1042  0.0158  0.0580
    1DIPC   D3B10499  -0.493   9.544   4.702  0.2749  0.3012 -0.2926
    1DIPC   C4B10500  -0.662   9.273   4.321  0.0887 -0.1849 -0.1084
    1DIPC   NC310501   9.603   9.722   7.920  0.2520 -0.1145  0.0533
    1DIPC   PO410502   9.869   9.427   7.711  0.1868 -0.1371  0.1246
    1DIPC   GL110503   9.870   9.749   7.489  0.0181 -0.2040 -0.0192
    1DIPC   GL210504   9.635   9.993   7.451  0.1972 -0.1720  0.2030
    1DIPC   C1A10505   9.912   9.694   7.027  0.0479  0.3471 -0.0649
    1DIPC   D2A10506   9.812   9.970   6.518  0.1550  0.1023 -0.0375
    1DIPC   D3A10507   9.996   9.763   6.082  0.1277 -0.3152  0.0691
    1DIPC   C4A10508   9.794   9.662   5.641 -0.0491  0.0854 -0.2699
    1DIPC   C1B10509   9.503   9.969   7.093  0.1358  0.2769  0.0160
    1DIPC   D2B10510   9.508  10.279   6.764  0.0381  0.0080 -0.0858
    1DIPC   D3B10511   9.160  10.521   6.641  0.1424 -0.1517 -0.0046
    1DIPC   C4B10512   9.124  10.957   6.750 -0.0159 -0.2322 -0.1558
    1DIPC   NC310513   3.808  20.487   6.002  0.2264  0.1709  0.1510
    1DIPC   PO410514   4.029  20.840   5.851  0.3083 -0.0847 -0.1679
    1DIPC   GL110515   3.968  20.869   5.474  0.2699 -0.0254 -0.1333
    1DIPC   GL210516   4.042  21.081   5.356 -0.0205  0.0311  0.1768
    1DIPC   C1A10517   3.834  20.667   5.034 -0.2323  0.1329  0.1053
    1DIPC   D2A10518   3.757  20.357   4.674 -0.4664  0.2003 -0.2108
    1DIPC   D3A10519   3.912  20.634   4.239  0.1606 -0.4200 -0.0733
    1DIPC   C4A10520   3.771  20.398   3.948 -0.1084 -0.0486  0.0974
    1DIPC   C1B10521   4.019  21.135   4.930 -0.1800 -0.0461 -0.0814
    1DIPC   D2B10522   4.212  20.924   4.543  0.2821  0.3016 -0.0110
    1DIPC   D3B10523   3.700  21.086   4.468  0.0691 -0.1093 -0.0136
    1DIPC   C4B10524   3.401  20.790   4.214 -0.1669  0.1003  0.0528
    1DIPC   NC310525   3.800  26.917   6.463 -0.0005 -0.1067  0.0915
    1DIPC   PO410526   3.603  27.250   6.449 -0.1974 -0.0724 -0.0771
    1DIPC   GL110527   3.569  27.155   6.065  0.0360 -0.1956 -0.2012
    1DIPC   GL210528   3.314  27.361   5.943 -0.2525  0.0506  0.1788
    1DIPC   C1A10529   3.788  27.400   5.785  0.0009  0.1468  0.0983
    1DIPC   D2A10530   3.934  27.538   5.329 -0.1472  0.1376  0.0733
    1DIPC   D3A10531   4.096  27.156   5.526 -0.0607  0.2095  0.0895
    1DIPC   C4A10532   3.869  26.711   5.559 -0.0967 -0.1468 -0.1204
    1DIPC   C1B10533   3.403  26.979   5.601 -0.0987 -0.1418 -0.0892
    1DIPC   D2B10534   3.183  26.596   5.371  0.0383  0.1405 -0.1343
    1DIPC   D3B10535   3.284  26.256   5.777  0.1976 -0.2546  0.0003
    1DIPC   C4B10536   3.711  26.250   5.653 -0.0953  0.1187 -0.0251
    1DIPC   NC310537  24.794   2.087   7.421  0.2000  0.2777  0.3670
    1DIPC   PO410538  24.799   2.394   7.115 -0.1262 -0.1889 -0.0512
    1DIPC   GL110539  24.717   2.288   6.691  0.0646  0.0674 -0.1839
    1DIPC   GL210540  24.868   2.025   6.590 -0.2166 -0.1846 -0.2352
    1DIPC   C1A10541  24.624   2.245   6.194 -0.0801 -0.0814 -0.0420
    1DIPC   D2A10542  24.456   2.561   5.860 -0.1990  0.1337 -0.0416
    1DIPC   D3A10543  24.341   2.304   5.610  0.0721 -0.2391 -0.1315
    1DIPC   C4A10544  24.342   2.323   5.187  0.0974  0.1158 -0.2986
    1DIPC   C1B10545  25.022   1.901   6.238  0.1157  0.2116  0.0998
    1DIPC   D2B10546  25.151   1.620   6.046  0.2493 -0.0901 -0.1226
    1DIPC   D3B10547  25.156   1.794   5.623 -0.3204 -0.1859  0.0376
    1DIPC   C4B10548  25.350   2.208   5.424 -0.0528  0.0004  0.0779
    1DIPC   NC310549  14.363   0.436   7.074  0.3208  0.1967 -0.2477
    1DIPC   PO410550  13.977   0.289   6.951  0.2550  0.2051  0.1522
    1DIPC   GL110551  13.822   0.235   6.526  0.0495 -0.3101 -0.2445
    1DIPC   GL210552  13.585   0.015   6.437 -0.0892  0.0572  0.1765
    1DIPC   C1A10553  14.161   0.109   6.210  0.2146  0.2147  0.0276
    1DIPC   D2A10554  14.264  -0.205   5.965  0.1977 -0.0095 -0.0602
    1DIPC   D3A10555  14.159  -0.008   5.645  0.1304  0.0265  0.1609
    1DIPC   C4A10556  14.405  -0.061   5.250  0.1397  0.4632 -0.0509
    1DIPC   C1B10557  13.321   0.320   6.363  0.1264 -0.1355 -0.1644
    1DIPC   D2B10558  12.907   0.411   6.204 -0.0808 -0.0830 -0.0220
    1DIPC   D3B10559  13.118   0.637   5.868 -0.0247 -0.1953 -0.1843
    1DIPC   C4B10560  13.009   1.036   5.705  0.1318 -0.0706  0.1340
    1DIPC   NC310561  27.534  24.056   6.499  0.3729  0.0337  0.0657
    1DIPC   PO410562  27.469  23.819   6.052  0.2141 -0.2115  0.1178
    1DIPC   GL110563  27.420  23.551   5.755  0.0859  0.1081  0.1582
    1DIPC   GL210564  27.131  23.419   5.621  0.0584  0.1972  0.1802
    1DIPC   C1A10565  27.552  23.385   5.356  0.1455 -0.2482  0.2225
    1DIPC   D2A10566  27.785  23.383   4.912  0.2600  0.3080 -0.0960
    1DIPC   D3A10567  27.443  23.152   4.920  0.1379 -0.1453 -0.2560
    1DIPC   C4A10568  27.114  23.161   5.211  0.1264  0.1455  0.0402
    1DIPC   C1B10569  26.866  23.723   5.467 -0.0018  0.1106  0.0836
    1DIPC   D2B10570  26.660  23.927   5.198  0.0908 -0.0958  0.1314
    1DIPC   D3B10571  26.218  23.898   5.026 -0.0243 -0.2454 -0.1582
    1DIPC   C4B10572  25.888  23.673   4.779  0.0384  0.0862  0.2981
    1DIPC   NC310573   2.139  18.350   6.164  0.0312  0.3051 -0.0470
    1DIPC   PO410574   2.338  18.025   6.240  0.0231  0.1464 -0.1399
    1DIPC   GL110575   2.075  17.907   5.898 -0.3837  0.0132  0.0576
    1DIPC   GL210576   1.873  17.806   5.740  0.2686  0.0282 -0.2978
    1DIPC   C1A10577   2.258  18.134   5.545  0.2766 -0.2882  0.0995
    1DIPC   D2A10578   2.482  18.425   5.313 -0.0011  0.0611  0.0079
    1DIPC   D3A10579   2.410  18.726   4.949  0.2000  0.0694  0.0556
    1DIPC   C4A10580   2.733  18.809   4.668 -0.0558 -0.1602  0.0880
    1DIPC   C1B10581   1.871  17.834   5.318  0.0550 -0.1513 -0.1746
    1DIPC   D2B10582   1.973  18.208   5.023  0.0309 -0.0313  0.1262
    1DIPC   D3B10583   1.691  18.024   4.772 -0.2466  0.2571 -0.0398
    1DIPC   C4B10584   1.711  18.016   4.297 -0.0551  0.0458 -0.1636
    1DIPC   NC310585  13.115  28.211   7.859  0.0738 -0.1533 -0.2033
    1DIPC   PO410586  13.227  28.216   7.417 -0.0625  0.4527  0.2954
    1DIPC   GL110587  13.104  28.198   6.914 -0.3793 -0.2396 -0.0928
    1DIPC   GL210588  12.838  28.390   6.715 -0.0158  0.1073  0.0978
    1DIPC   C1A10589  13.063  27.989   6.414 -0.1987 -0.1425 -0.0845
    1DIPC   D2A10590  12.905  28.008   6.045 -0.1948 -0.1481  0.0101
    1DIPC   D3A10591  12.728  27.554   5.994  0.1458 -0.0289  0.0731
    1DIPC   C4A10592  12.608  27.451   5.478  0.1391 -0.0133  0.3236
    1DIPC   C1B10593  12.737  28.395   6.349 -0.1858 -0.0150  0.0670
    1DIPC   D2B10594  12.774  28.516   5.886 -0.2678  0.0043  0.1916
    1DIPC   D3B10595  13.092  28.321   5.666  0.3626 -0.0107 -0.1676
    1DIPC   C4B10596  13.328  28.487   5.336  0.2236 -0.1561 -0.0671
    1DIPC   NC310597   7.117  19.845   5.529  0.2906  0.1698 -0.0782
    1DIPC   PO410598   6.779  19.730   5.768  0.3428  0.1917  0.0685
    1DIPC   GL110599   6.920  19.384   5.441  0.0403 -0.0323  0.2295
    1DIPC   GL210600   6.990  19.537   5.148  0.5228 -0.2072  0.0691
    1DIPC   C1A10601   6.625  19.175   5.166 -0.0589 -0.1079  0.0288
    1DIPC   D2A10602   6.310  18.891   5.228 -0.0915  0.4025  0.0957
    1DIPC   D3A10603   6.020  19.273   5.288 -0.3584 -0.1180 -0.2424
    1DIPC   C4A10604   5.799  19.329   4.921 -0.0494 -0.1796  0.0249
    1DIPC   C1B10605   6.823  19.415   4.808  0.0144  0.0172 -0.1152
    1DIPC   D2B10606   6.802  19.384   4.346  0.0054  0.0808 -0.0986
    1DIPC   D3B10607   6.485  19.541   4.036  0.1301 -0.0354  0.1321
    1DIPC   C4B10608   6.105  19.697   4.174 -0.0206  0.2088 -0.2056
    1DIPC   NC310609  15.013   2.262   7.690 -0.3168 -0.0042 -0.1911
    1DIPC   PO410610  14.827   1.931   7.305  0.0927 -0.1865  0.2443
    1DIPC   GL110611  15.000   1.843   6.896  0.0217  0.0438  0.1415
    1DIPC   GL210612  15.236   1.639   6.766  0.1510  0.3044  0.1054
    1DIPC   C1A10613  15.032   2.078   6.517 -0.2364  0.2733  0.0303
    1DIPC   D2A10614  15.360   2.152   6.151 -0.2266 -0.1575  0.0070
    1DIPC   D3A10615  15.760   2.086   6.291 -0.1726 -0.1478 -0.1351
    1DIPC   C4A10616  15.934   1.705   6.237 -0.1695 -0.2860 -0.0534
    1DIPC   C1B10617  15.413   1.713   6.337  0.0152 -0.1172  0.1828
    1DIPC   D2B10618  15.556   1.670   5.936 -0.0053 -0.0243 -0.1671
    1DIPC   D3B10619  15.537   1.734   5.537 -0.0236 -0.1446  0.0327
    1DIPC   C4B10620  15.864   1.637   5.143 -0.0270  0.0190  0.3596
    1DIPC   NC310621  10.583   5.775   6.974 -0.0101  0.0325 -0.1694
    1DIPC   PO410622  11.047   5.693   7.024 -0.2886  0.2791  0.0710
    1DIPC   GL110623  10.938   5.874   6.584  0.3732  0.0983 -0.1408
    1DIPC   GL210624  11.066   5.754   6.272 -0.0403  0.3052  0.0939
    1DIPC   C1A10625  10.941   6.305   6.526  0.3643 -0.0501  0.0088
    1DIPC   D2A10626  11.082   6.733   6.517 -0.0505 -0.1066  0.0562
    1DIPC   D3A10627  11.203   6.981   6.214 -0.0972 -0.0568 -0.0428
    1DIPC   C4A10628  11.422   6.942   5.759 -0.3291  0.2907  0.0617
    1DIPC   C1B10629  10.920   6.061   6.064 -0.2036 -0.0479  0.0612
    1DIPC   D2B10630  11.127   6.453   6.027 -0.1294  0.3103  0.2318
    1DIPC   D3B10631  11.299   6.454   5.582  0.2149  0.2780  0.2638
    1DIPC   C4B10632  11.155   6.451   5.175  0.2996 -0.1936  0.0177
    1DIPC   NC310633   4.695  29.276   6.791  0.0318 -0.2131 -0.1323
    1DIPC   PO410634   4.780  29.285   6.464 -0.2115 -0.1615  0.3402
    1DIPC   GL110635   4.719  29.358   6.017 -0.0366  0.0371 -0.2030
    1DIPC   GL210636   4.831  29.702   5.886 -0.4839 -0.0361 -0.0351
    1DIPC   C1A10637   4.449  29.408   5.735  0.1504  0.1388 -0.1243
    1DIPC   D2A10638   4.258  29.516   5.267  0.3104 -0.0453  0.3081
    1DIPC   D3A10639   4.020  29.162   5.390  0.3018 -0.3736  0.2422
    1DIPC   C4A10640   4.003  29.174   5.873 -0.3157 -0.0117  0.0986
    1DIPC   C1B10641   4.960  29.573   5.426 -0.0167 -0.0562 -0.2618
    1DIPC   D2B10642   5.020  29.338   5.011  0.1062  0.4262 -0.1543
    1DIPC   D3B10643   4.709  29.573   4.900 -0.3810  0.2220 -0.2290
    1DIPC   C4B10644   4.580  29.395   4.542 -0.3734  0.0364 -0.2705
    1DIPC   NC310645   5.759  25.634   6.121  0.0549 -0.0106  0.0552
    1DIPC   PO410646   5.508  25.795   6.412  0.1114 -0.0760 -0.0023
    1DIPC   GL110647   5.170  25.878   6.095 -0.1175 -0.0953 -0.1684
    1DIPC   GL210648   5.061  25.664   5.976 -0.2446 -0.0981 -0.1010
    1DIPC   C1A10649   5.003  26.175   5.862 -0.2083 -0.4448  0.0466
    1DIPC   D2A10650   5.018  26.331   5.517 -0.3388 -0.1481  0.3544
    1DIPC   D3A10651   5.287  26.158   5.204 -0.0470  0.2109 -0.2121
    1DIPC   C4A10652   5.720  26.118   4.920  0.1390  0.2297 -0.0012
    1DIPC   C1B10653   5.015  25.708   5.572  0.0209 -0.3456  0.0053
    1DIPC   D2B10654   4.811  25.867   5.219 -0.0183  0.3219  0.1435
    1DIPC   D3B10655   4.864  26.088   4.775 -0.0329 -0.0359  0.0687
    1DIPC   C4B10656   5.278  26.024   4.562 -0.0841  0.1108 -0.1118
    1DIPC   NC310657  24.548   7.940   6.430 -0.2580  0.0035  0.0647
    1DIPC   PO410658  24.576   7.504   6.519 -0.2468 -0.0775  0.3134
    1DIPC   GL110659  24.851   7.604   6.138  0.0551  0.2311 -0.2464
    1DIPC   GL210660  24.861   7.987   6.018 -0.1579 -0.0623  0.3695
    1DIPC   C1A10661  24.887   7.404   5.732 -0.0911  0.1675  0.1248
    1DIPC   D2A10662  24.792   7.565   5.327  0.1760  0.2098 -0.0490
    1DIPC   D3A10663  24.701   7.057   5.311  0.0787  0.0638  0.2347
    1DIPC   C4A10664  25.027   6.731   5.231 -0.1170 -0.1163 -0.4096
    1DIPC   C1B10665  24.886   7.914   5.616 -0.0823 -0.1031  0.2729
    1DIPC   D2B10666  24.969   8.099   5.130 -0.0826 -0.4872  0.2114
    1DIPC   D3B10667  25.235   7.771   5.202 -0.3975  0.1052 -0.0245
    1DIPC   C4B10668  25.590   7.953   5.494 -0.3003 -0.0757 -0.2329
    1DIPC   NC310669  27.815   4.651   6.806  0.1970 -0.0792  0.2811
    1DIPC   PO410670  27.404   4.583   6.720 -0.6319 -0.2694  0.1353
    1DIPC   GL110671  27.376   4.621   6.220 -0.0412 -0.3060 -0.2440
    1DIPC   GL210672  27.672   4.399   6.181 -0.1029  0.0935  0.1891
    1DIPC   C1A10673  27.274   4.547   5.870  0.4156 -0.0003 -0.0920
    1DIPC   D2A10674  27.360   4.605   5.508 -0.1561 -0.4028  0.4003
    1DIPC   D3A10675  27.332   5.018   5.729 -0.2666  0.1693 -0.0685
    1DIPC   C4A10676  27.577   5.282   5.559 -0.0256  0.2789  0.0374
    1DIPC   C1B10677  27.511   4.131   5.811 -0.2516 -0.0277  0.0597
    1DIPC   D2B10678  27.297   4.083   5.411  0.0055 -0.3005  0.1967
    1DIPC   D3B10679  27.469   3.649   5.340  0.0627 -0.1139 -0.0295
    1DIPC   C4B10680  27.869   3.367   5.289  0.1638 -0.0158 -0.3856
    1DIPC   NC310681  18.740   3.668   6.415  0.1510  0.0942 -0.0349
    1DIPC   PO410682  19.041   3.883   6.234  0.3553 -0.1459  0.0231
    1DIPC   GL110683  19.289   4.035   5.797  0.1497 -0.1275 -0.1375
    1DIPC   GL210684  19.399   4.408   5.750 -0.0499 -0.1303  0.1824
    1DIPC   C1A10685  19.332   3.812   5.340 -0.0751  0.0502 -0.2376
    1DIPC   D2A10686  19.298   3.826   4.885  0.2732  0.0284  0.2635
    1DIPC   D3A10687  19.078   3.510   4.997  0.0222 -0.0491 -0.0270
    1DIPC   C4A10688  18.650   3.512   4.770 -0.0382 -0.2799  0.1016
    1DIPC   C1B10689  19.373   4.702   5.598 -0.0478 -0.0939  0.0281
    1DIPC   D2B10690  19.647   5.121   5.430 -0.1098  0.0945  0.1512
    1DIPC   D3B10691  19.760   5.261   5.079 -0.2351 -0.3279 -0.0695
    1DIPC   C4B10692  20.041   5.585   4.894  0.2654 -0.1847 -0.2096
    1DIPC   NC310693  27.309   3.740   6.647 -0.1422  0.3260 -0.4826
    1DIPC   PO410694  26.797   3.684   6.528 -0.0197 -0.4795 -0.3349
    1DIPC   GL110695  26.836   3.810   6.100  0.1600  0.1937  0.2993
    1DIPC   GL210696  26.565   3.597   6.002  0.1333 -0.1358  0.1658
    1DIPC   C1A10697  27.043   3.573   5.666  0.0161 -0.2358 -0.1684
    1DIPC   D2A10698  27.012   3.361   5.244  0.2784  0.1624  0.1486
    1DIPC   D3A10699  26.907   3.268   4.852  0.2253  0.0640  0.1667
    1DIPC   C4A10700  26.738   2.934   4.797  0.3826 -0.2620  0.1832
    1DIPC   C1B10701  26.543   3.500   5.523 -0.2261 -0.1834  0.2635
    1DIPC   D2B10702  26.461   3.415   5.077  0.1453 -0.2922  0.1167
    1DIPC   D3B10703  26.782   3.766   4.922 -0.0803  0.1342  0.0279
    1DIPC   C4B10704  26.968   3.571   4.462  0.2921  0.1253 -0.0034
    1DIPC   NC310705   3.221  14.417   6.172  0.0029 -0.1553 -0.0613
    1DIPC   PO410706   2.905  14.517   5.876 -0.1153 -0.1498 -0.0356
    1DIPC   GL110707   2.793  14.488   5.483 -0.1293  0.2151 -0.0610
    1DIPC   GL210708   2.513  14.667   5.467 -0.2845  0.0849 -0.1846
    1DIPC   C1A10709   2.827  14.465   5.093  0.0850  0.1112  0.1681
    1DIPC   D2A10710   2.968  14.406   4.643  0.0899 -0.0376  0.0396
    1DIPC   D3A10711   2.535  14.516   4.383 -0.0083  0.2505  0.0237
    1DIPC   C4A10712   2.204  14.172   4.382 -0.1427 -0.0621 -0.2361
    1DIPC   C1B10713   2.236  14.658   5.131 -0.4192 -0.0479  0.0656
    1DIPC   D2B10714   2.086  14.564   4.657  0.2606 -0.0451 -0.1323
    1DIPC   D3B10715   2.049  14.932   4.530  0.0402  0.0346  0.0682
    1DIPC   C4B10716   2.352  15.036   4.328  0.2526 -0.1701 -0.2306
    1DIPC   NC310717  10.118  10.210   7.597  0.3696 -0.0533  0.0357
    1DIPC   PO410718  10.446  10.485   7.327 -0.0603  0.1545  0.1466
    1DIPC   GL110719  10.317  10.527   6.914 -0.0391  0.1847  0.1511
    1DIPC   GL210720  10.232  10.879   6.783  0.3266 -0.1018  0.0795
    1DIPC   C1A10721  10.044  10.471   6.539 -0.2761  0.2128  0.1355
    1DIPC   D2A10722   9.582  10.400   6.315 -0.2293 -0.1861  0.0487
    1DIPC   D3A10723   9.528  10.449   5.876 -0.0282 -0.1112  0.0486
    1DIPC   C4A10724   9.538  10.141   5.567 -0.0933  0.0268  0.3963
    1DIPC   C1B10725  10.266  11.044   6.428 -0.0985  0.0068  0.0011
    1DIPC   D2B10726  10.472  11.233   6.009 -0.1964  0.2244 -0.4572
    1DIPC   D3B10727  10.251  11.127   5.692  0.0488  0.2142 -0.0850
    1DIPC   C4B10728  10.293  10.807   5.460  0.1361  0.3492 -0.0154
    1DIPC   NC310729   8.419   5.986   7.326  0.0121 -0.2678  0.0262
    1DIPC   PO410730   7.958   5.907   7.377 -0.0404  0.1715  0.0747
    1DIPC   GL110731   8.088   5.996   6.945 -0.0760 -0.2059 -0.0004
    1DIPC   GL210732   8.248   5.784   6.719  0.0327  0.0877  0.1357
    1DIPC   C1A10733   8.194   6.317   6.564 -0.0722 -0.0983  0.1634
    1DIPC   D2A10734   8.426   6.541   6.310  0.3405  0.0406  0.1709
    1DIPC   D3A10735   8.651   6.155   6.335  0.2027 -0.1503 -0.0259
    1DIPC   C4A10736   8.978   6.338   6.112  0.1235  0.1085  0.0983
    1DIPC   C1B10737   8.541   5.700   6.434 -0.0063 -0.1217  0.0256
    1DIPC   D2B10738   8.907   5.718   6.203 -0.1681  0.0085 -0.0103
    1DIPC   D3B10739   8.566   5.680   5.969  0.0482 -0.0282 -0.0417
    1DIPC   C4B10740   8.534   5.573   5.495 -0.0567  0.1886  0.2143
    1DIPC   NC310741  13.927  22.561   6.025 -0.3182  0.2295  0.2664
    1DIPC   PO410742  14.147  22.951   6.113  0.0908 -0.1277 -0.1320
    1DIPC   GL110743  13.940  23.021   5.749 -0.1087 -0.1556 -0.3760
    1DIPC   GL210744  13.832  23.308   5.499  0.1350 -0.2109 -0.1027
    1DIPC   C1A10745  13.831  22.817   5.292  0.1140 -0.2957  0.0942
    1DIPC   D2A10746  13.559  23.010   5.014 -0.0202  0.2916  0.0076
    1DIPC   D3A10747  13.264  22.810   4.672  0.0998  0.0787 -0.0148
    1DIPC   C4A10748  12.907  22.569   4.469 -0.0145  0.0572  0.1325
    1DIPC   C1B10749  14.002  23.322   5.088  0.0261  0.1735 -0.3413
    1DIPC   D2B10750  13.788  23.616   4.784  0.0286 -0.0812  0.0088
    1DIPC   D3B10751  13.383  23.299   4.610  0.2902  0.2594 -0.0772
    1DIPC   C4B10752  13.114  23.158   4.989  0.0268 -0.5313 -0.0247
    1DIPC   NC310753  15.887   6.707   6.795  0.0453 -0.2025 -0.1355
    1DIPC   PO410754  15.982   6.576   6.393 -0.1983 -0.0093 -0.2245
    1DIPC   GL110755  16.082   6.511   6.032 -0.0146  0.1785 -0.1382
    1DIPC   GL210756  16.370   6.344   5.985 -0.0272  0.0639  0.2232
    1DIPC   C1A10757  15.930   6.478   5.619  0.0322 -0.0224  0.0951
    1DIPC   D2A10758  15.812   6.360   5.192  0.0765 -0.0285 -0.2011
    1DIPC   D3A10759  15.854   5.955   5.310  0.3000 -0.0116 -0.0345
    1DIPC   C4A10760  15.785   5.775   5.025 -0.0395 -0.2864  0.1583
    1DIPC   C1B10761  16.714   6.121   5.687 -0.1613  0.2556 -0.0127
    1DIPC   D2B10762  17.019   5.828   5.620 -0.1445 -0.0528  0.1833
    1DIPC   D3B10763  17.461   5.988   5.496  0.0282 -0.0129  0.3064
    1DIPC   C4B10764  17.705   6.312   5.311  0.3325  0.2770  0.1431
    1DIPC   NC310765  24.505  18.476   7.375 -0.1178  0.3616 -0.0767
    1DIPC   PO410766  24.631  18.470   7.008  0.2768 -0.0771 -0.3405
    1DIPC   GL110767  24.499  18.640   6.693  0.0970 -0.0468 -0.2313
    1DIPC   GL210768  24.699  18.836   6.499  0.1351  0.2006 -0.4337
    1DIPC   C1A10769  24.378  18.449   6.332 -0.0506 -0.1623 -0.2550
    1DIPC   D2A10770  24.074  18.284   6.121 -0.3039  0.0764 -0.1950
    1DIPC   D3A10771  24.086  18.187   5.682  0.0008  0.3549  0.2181
    1DIPC   C4A10772  24.536  18.395   5.526  0.0015 -0.0060 -0.2030
    1DIPC   C1B10773  24.442  18.896   6.133 -0.1865 -0.3903 -0.0276
    1DIPC   D2B10774  24.543  18.830   5.741  0.0446 -0.0807  0.0967
    1DIPC   D3B10775  24.937  18.751   5.975  0.1620 -0.3263 -0.0258
    1DIPC   C4B10776  24.754  18.307   6.074 -0.0784 -0.2950 -0.0912
    1DIPC   NC310777  24.211   9.788   6.042 -0.0184 -0.0731 -0.0753
    1DIPC   PO410778  24.378  10.204   6.007 -0.0905 -0.2580  0.2056
    1DIPC   GL110779  24.212   9.998   5.608  0.0941 -0.2884  0.1682
    1DIPC   GL210780  24.129   9.680   5.505 -0.1466 -0.0472 -0.1179
    1DIPC   C1A10781  24.443  10.020   5.226  0.0442  0.0926  0.2446
    1DIPC   D2A10782  24.840  10.192   5.030 -0.2870 -0.0562  0.1065
    1DIPC   D3A10783  24.856  10.257   4.640 -0.3570 -0.1286 -0.1535
    1DIPC   C4A10784  24.842  10.239   4.282  0.0107 -0.1189  0.0234
    1DIPC   C1B10785  24.046   9.748   5.108 -0.1803 -0.1800  0.2918
    1DIPC   D2B10786  23.878   9.658   4.787  0.3567  0.1531  0.1139
    1DIPC   D3B10787  23.515   9.446   4.740 -0.2943  0.0004  0.0653
    1DIPC   C4B10788  23.472   9.145   4.442 -0.3381  0.0765 -0.0134
    1DIPC   NC310789   8.453   6.771   7.542 -0.0056 -0.0106  0.1503
    1DIPC   PO410790   8.172   6.884   7.124 -0.2958 -0.0932  0.2201
    1DIPC   GL110791   8.133   6.831   6.646  0.1152 -0.0716  0.0267
    1DIPC   GL210792   8.154   7.043   6.536  0.1069  0.1458 -0.1414
    1DIPC   C1A10793   8.032   6.756   6.144  0.0516  0.1831 -0.2083
    1DIPC   D2A10794   8.100   6.936   5.687 -0.1071  0.2926 -0.0526
    1DIPC   D3A10795   7.745   6.845   5.394  0.0736 -0.1255  0.1380
    1DIPC   C4A10796   7.534   6.456   5.325 -0.2714  0.3976 -0.5383
    1DIPC   C1B10797   8.094   7.237   6.190 -0.1866 -0.0546 -0.2196
    1DIPC   D2B10798   8.423   7.325   5.830  0.2582 -0.0405  0.0671
    1DIPC   D3B10799   8.636   7.019   5.453  0.0603  0.0815 -0.0685
    1DIPC   C4B10800   8.291   6.847   5.178 -0.1162  0.2407 -0.2155
    1DIPC   NC310801   4.203  25.292   6.218  0.0746 -0.1164 -0.0543
    1DIPC   PO410802   3.818  25.238   6.096  0.2883 -0.1555  0.1507
    1DIPC   GL110803   3.717  25.258   5.663  0.1640 -0.0456  0.1286
    1DIPC   GL210804   3.798  24.985   5.586 -0.0265 -0.1030  0.0369
    1DIPC   C1A10805   3.788  25.471   5.316  0.1203  0.3747 -0.3148
    1DIPC   D2A10806   3.739  25.813   5.194  0.2415 -0.1470  0.1549
    1DIPC   D3A10807   3.648  25.934   4.759 -0.0791  0.1110  0.0273
    1DIPC   C4A10808   3.946  26.158   4.664  0.0737 -0.0270 -0.0317
    1DIPC   C1B10809   4.017  25.061   5.147 -0.0019  0.2266 -0.1889
    1DIPC   D2B10810   3.995  25.033   4.773  0.5330 -0.0703  0.1803
    1DIPC   D3B10811   3.713  25.000   4.499  0.0800  0.1663 -0.0287
    1DIPC   C4B10812   3.282  25.232   4.526  0.0033  0.1947  0.4167
    1DIPC   NC310813  25.822   5.810   6.418  0.1088  0.0471  0.3199
    1DIPC   PO410814  26.234   5.915   6.766  0.0740 -0.0836 -0.1628
    1DIPC   GL110815  26.274   6.070   6.332 -0.1567  0.1013  0.3472
    1DIPC   GL210816  26.636   6.119   6.251  0.1112 -0.1890  0.2023
    1DIPC   C1A10817  26.234   6.009   5.873  0.0068 -0.5181  0.2883
    1DIPC   D2A10818  26.123   5.827   5.422 -0.3958 -0.0260  0.0842
    1DIPC   D3A10819  25.708   5.862   5.224  0.2990 -0.0663  0.0655
    1DIPC   C4A10820  25.770   6.099   4.891 -0.3319 -0.3495 -0.1898
    1DIPC   C1B10821  26.646   5.778   6.200 -0.1639  0.1498  0.2607
    1DIPC   D2B10822  26.708   5.401   6.054 -0.3017  0.0328 -0.1291
    1DIPC   D3B10823  26.912   5.242   5.693  0.0733  0.0492 -0.3737
    1DIPC   C4B10824  27.048   5.532   5.497  0.0753 -0.0027 -0.0375
    1DIPC   NC310825  23.085  16.244   6.406  0.0955 -0.1348  0.2785
    1DIPC   PO410826  23.463  16.538   6.521 -0.1533  0.0914 -0.4541
    1DIPC   GL110827  23.189  16.759   6.184  0.1362 -0.0678  0.0533
    1DIPC   GL210828  23.431  16.977   5.977  0.1422  0.0250  0.2098
    1DIPC   C1A10829  22.961  16.914   5.821  0.1693 -0.0588 -0.0087
    1DIPC   D2A10830  22.808  17.017   5.424  0.0203 -0.1127 -0.1860
    1DIPC   D3A10831  22.657  16.642   5.325  0.0120  0.0407  0.2050
    1DIPC   C4A10832  22.703  16.587   4.939 -0.1719 -0.0589 -0.3247
    1DIPC   C1B10833  23.303  16.946   5.493  0.0745  0.0313 -0.0622
    1DIPC   D2B10834  23.299  17.064   5.045 -0.3402 -0.2901 -0.0033
    1DIPC   D3B10835  22.831  17.043   4.879  0.1788  0.0049  0.0142
    1DIPC   C4B10836  22.718  17.233   4.407  0.3939  0.1898  0.0566
    1DIPC   NC310837  21.391  23.949   6.752 -0.1643 -0.3525 -0.0718
    1DIPC   PO410838  21.654  24.107   6.800  0.4083  0.0189 -0.3110
    1DIPC   GL110839  21.699  24.215   6.399  0.3867  0.1217 -0.0644
    1DIPC   GL210840  21.810  24.467   6.357 -0.1202  0.1294 -0.0796
    1DIPC   C1A10841  21.730  24.108   6.003 -0.0401 -0.0560  0.2187
    1DIPC   D2A10842  21.412  24.279   5.678  0.0852 -0.0928 -0.1748
    1DIPC   D3A10843  21.087  24.161   5.840  0.0186 -0.0834  0.0731
    1DIPC   C4A10844  21.094  23.871   6.192  0.0196 -0.0499  0.0567
    1DIPC   C1B10845  22.186  24.618   6.256  0.0885  0.0119 -0.4303
    1DIPC   D2B10846  22.632  24.846   6.189 -0.0663  0.0457  0.0114
    1DIPC   D3B10847  22.623  24.339   6.096 -0.0600 -0.5839  0.0180
    1DIPC   C4B10848  22.571  24.123   5.686 -0.2779 -0.0089 -0.0091
    1DIPC   NC310849   4.082   6.032   6.620 -0.0901  0.0733 -0.1799
    1DIPC   PO410850   4.433   5.813   6.809  0.4369  0.1804 -0.1439
    1DIPC   GL110851   4.582   5.757   6.436 -0.1438 -0.1291  0.2717
    1DIPC   GL210852   4.931   5.895   6.443 -0.1149  0.1482  0.0125
    1DIPC   C1A10853   4.760   5.487   6.223 -0.1759 -0.2199 -0.0407
    1DIPC   D2A10854   4.969   5.468   5.832 -0.0026  0.0867 -0.1683
    1DIPC   D3A10855   4.661   5.673   5.771  0.2096  0.1165  0.3509
    1DIPC   C4A10856   4.628   6.184   5.861  0.2319 -0.3599  0.1655
    1DIPC   C1B10857   5.031   5.898   6.045  0.1107 -0.1754  0.0343
    1DIPC   D2B10858   4.987   5.964   5.587 -0.3362  0.1267 -0.0539
    1DIPC   D3B10859   4.608   5.856   5.289 -0.3195  0.1769  0.0875
    1DIPC   C4B10860   4.138   6.151   5.142  0.0912 -0.0646 -0.0789
    1DIPC   NC310861   8.800   8.752   7.186 -0.0275 -0.1205 -0.0603
    1DIPC   PO410862   8.427   8.708   7.148  0.1567 -0.0324  0.2325
    1DIPC   GL110863   8.340   8.651   6.685 -0.2003 -0.0683 -0.0084
    1DIPC   GL210864   8.066   8.432   6.548  0.0527 -0.4281  0.0430
    1DIPC   C1A10865   8.495   8.223   6.499  0.0287 -0.2231 -0.2641
    1DIPC   D2A10866   8.616   7.759   6.484  0.1792 -0.1611 -0.1400
    1DIPC   D3A10867   8.955   7.865   6.085  0.1413  0.0387 -0.2093
    1DIPC   C4A10868   8.825   8.240   5.848  0.0718  0.3500  0.1579
    1DIPC   C1B10869   8.270   8.615   6.168 -0.0416  0.1833 -0.1985
    1DIPC   D2B10870   8.560   8.692   5.777 -0.1269 -0.2810 -0.1876
    1DIPC   D3B10871   8.430   8.838   5.382  0.0387 -0.3068 -0.3722
    1DIPC   C4B10872   8.679   9.165   5.350  0.0916  0.2109  0.0609
    1DIPC   NC310873   6.207  17.799   5.618 -0.1905 -0.1451 -0.1883
    1DIPC   PO410874   6.439  18.088   5.840 -0.2141  0.1668 -0.0643
    1DIPC   GL110875   6.556  18.015   5.312  0.1715  0.1995  0.0498
    1DIPC   GL210876   6.703  17.679   5.193 -0.0649 -0.0152  0.2491
    1DIPC   C1A10877   6.843  18.049   4.973  0.2239 -0.0114  0.1491
    1DIPC   D2A10878   6.661  18.242   4.573  0.1743 -0.0809 -0.0978
    1DIPC   D3A10879   6.823  18.295   4.182 -0.3353 -0.0445  0.1787
    1DIPC   C4A10880   7.324  18.199   4.228  0.1802 -0.1269 -0.0100
    1DIPC   C1B10881   6.914  17.600   4.793  0.0812  0.2212 -0.1062
    1DIPC   D2B10882   6.936  17.793   4.453 -0.3223 -0.0688  0.0145
    1DIPC   D3B10883   6.655  17.673   4.227  0.0505 -0.1619 -0.3704
    1DIPC   C4B10884   6.330  17.936   4.086 -0.0790 -0.3970  0.2523
    1DIPC   NC310885  19.594   0.910   6.704 -0.0472 -0.2694  0.2286
    1DIPC   PO410886  19.499   1.336   6.659  0.0809  0.1809  0.0083
    1DIPC   GL110887  19.556   1.175   6.259 -0.0169 -0.0074  0.1070
    1DIPC   GL210888  19.382   0.875   6.263  0.0392 -0.0863 -0.2239
    1DIPC   C1A10889  19.301   1.428   5.991 -0.3661  0.1057  0.0866
    1DIPC   D2A10890  19.014   1.821   5.713 -0.1405  0.2248  0.0116
    1DIPC   D3A10891  19.094   1.890   5.301  0.3728 -0.1789 -0.2335
    1DIPC   C4A10892  19.488   1.626   5.156  0.3529  0.2468 -0.0945
    1DIPC   C1B10893  19.430   0.947   5.816 -0.1242  0.0154  0.1031
    1DIPC   D2B10894  19.478   1.286   5.525 -0.1231  0.0237 -0.0669
    1DIPC   D3B10895  19.500   0.917   5.284  0.2209  0.1053 -0.2706
    1DIPC   C4B10896  19.196   1.116   5.038  0.4398 -0.2328 -0.2939
    1DIPC   NC310897  20.434  19.440   7.228 -0.0747  0.0979 -0.0408
    1DIPC   PO410898  20.886  19.553   7.052 -0.0771  0.3020  0.0425
    1DIPC   GL110899  20.989  19.500   6.576 -0.2952 -0.1095  0.0089
    1DIPC   GL210900  21.253  19.531   6.441 -0.1339 -0.1398  0.2325
    1DIPC   C1A10901  20.927  19.628   6.099 -0.1462  0.1444 -0.0229
    1DIPC   D2A10902  20.617  19.757   5.778 -0.1165  0.1269 -0.0005
    1DIPC   D3A10903  20.276  19.678   5.518  0.0008  0.0614  0.2955
    1DIPC   C4A10904  19.939  19.327   5.605  0.1637 -0.0621  0.2864
    1DIPC   C1B10905  21.453  19.537   6.039  0.1643  0.0258  0.1073
    1DIPC   D2B10906  21.654  19.520   5.631  0.0115  0.0701 -0.1203
    1DIPC   D3B10907  21.451  19.397   5.264  0.0234 -0.0680 -0.1065
    1DIPC   C4B10908  21.103  19.219   5.210  0.0656 -0.4053  0.2359
    1DIPC   NC310909   9.425   0.506   7.311  0.2721 -0.2461 -0.0021
    1DIPC   PO410910   9.078   0.525   6.998  0.0955 -0.1754 -0.4553
    1DIPC   GL110911   9.216   0.244   6.788 -0.2172 -0.2604  0.1017
    1DIPC   GL210912   9.066   0.273   6.538 -0.0154  0.0044 -0.2062
    1DIPC   C1A10913   9.455  -0.031   6.430 -0.2040 -0.2909 -0.0846
    1DIPC   D2A10914   9.473  -0.098   6.039 -0.0439 -0.2981 -0.1404
    1DIPC   D3A10915   9.488   0.067   5.619 -0.2188 -0.2264 -0.1267
    1DIPC   C4A10916   9.291   0.306   5.316  0.0712 -0.0442  0.0829
    1DIPC   C1B10917   9.279   0.436   6.256  0.0903 -0.2653 -0.3453
    1DIPC   D2B10918   9.445   0.547   5.827  0.1439 -0.4310 -0.2344
    1DIPC   D3B10919   9.759   0.458   5.530  0.1008 -0.0777  0.2815
    1DIPC   C4B10920  10.058   0.479   5.292 -0.0313 -0.1215 -0.1475
    1DIPC   NC310921   1.487  26.209   6.362 -0.0621 -0.2347  0.0216
    1DIPC   PO410922   1.266  26.189   6.006 -0.0668  0.1499  0.1331
    1DIPC   GL110923   1.307  26.202   5.512  0.0898 -0.0684  0.1069
    1DIPC   GL210924   1.568  26.016   5.420  0.2232  0.1814  0.4160
    1DIPC   C1A10925   1.520  26.362   5.095  0.0542  0.1062  0.0281
    1DIPC   D2A10926   1.284  26.508   4.741 -0.0497 -0.2972 -0.2021
    1DIPC   D3A10927   1.231  26.873   4.557 -0.0593 -0.1329  0.0024
    1DIPC   C4A10928   1.274  26.762   4.098  0.2237  0.0012  0.2805
    1DIPC   C1B10929   1.920  26.060   5.304 -0.0918  0.0834  0.0576
    1DIPC   D2B10930   2.064  26.081   4.908 -0.1339  0.0116  0.0807
    1DIPC   D3B10931   1.661  25.909   4.898 -0.0278 -0.0452 -0.0398
    1DIPC   C4B10932   1.773  25.599   4.613  0.2305 -0.1154 -0.0910
    1DIPC   NC310933   2.869   5.187   6.778 -0.2924  0.0550 -0.1522
    1DIPC   PO410934   2.642   5.579   6.784 -0.0246  0.1520 -0.2371
    1DIPC   GL110935   2.679   5.469   6.378 -0.0712  0.2510  0.0636
    1DIPC   GL210936   2.360   5.391   6.234 -0.1590  0.0983 -0.0578
    1DIPC   C1A10937   2.733   5.349   5.828 -0.1829 -0.3072 -0.2680
    1DIPC   D2A10938   2.747   5.498   5.371  0.4630 -0.1379  0.3319
    1DIPC   D3A10939   2.650   5.777   5.553 -0.0245  0.2621  0.0658
    1DIPC   C4A10940   2.447   6.139   5.311 -0.2794  0.2121  0.0389
    1DIPC   C1B10941   2.455   5.707   6.008  0.0463 -0.1259  0.2207
    1DIPC   D2B10942   2.609   6.058   5.946 -0.1073 -0.2769  0.2612
    1DIPC   D3B10943   2.797   6.060   6.332 -0.0931  0.1514  0.2220
    1DIPC   C4B10944   3.266   6.086   6.263 -0.1113  0.0176 -0.0569
    1DIPC   NC310945  29.701  18.461   6.547  0.3930  0.1783 -0.0471
    1DIPC   PO410946  30.222  18.495   6.494  0.2096  0.1560 -0.0017
    1DIPC   GL110947  29.958  18.354   6.054 -0.1508  0.2610 -0.2121
    1DIPC   GL210948  29.885  18.624   5.834  0.1093  0.0628 -0.1666
    1DIPC   C1A10949  29.576  18.198   5.744 -0.2971 -0.2928 -0.1739
    1DIPC   D2A10950  29.498  18.168   5.272  0.1406  0.0184 -0.1433
    1DIPC   D3A10951  29.886  18.048   5.216 -0.1260 -0.0517 -0.1561
    1DIPC   C4A10952  30.056  18.205   5.531  0.0347 -0.0426 -0.0532
    1DIPC   C1B10953  29.711  18.719   5.452 -0.1139  0.3909 -0.0157
    1DIPC   D2B10954  29.614  18.603   4.959 -0.1312  0.0531 -0.6920
    1DIPC   D3B10955  29.217  18.747   5.149 -0.2058  0.2301  0.0735
    1DIPC   C4B10956  29.303  19.006   5.453  0.1859  0.0610  0.2417
    1DIPC   NC310957  14.410   4.623   6.532 -0.2835  0.1510  0.1285
    1DIPC   PO410958  14.356   4.978   6.837 -0.0539  0.0895  0.0354
    1DIPC   GL110959  14.104   5.098   6.354  0.1401  0.0971 -0.1359
    1DIPC   GL210960  13.818   4.968   6.228 -0.0053 -0.0952  0.0017
    1DIPC   C1A10961  14.082   5.334   6.009  0.3494 -0.0562  0.0200
    1DIPC   D2A10962  14.002   5.754   6.037 -0.0776  0.0649  0.2020
    1DIPC   D3A10963  13.752   5.571   5.644  0.0212 -0.0878  0.0515
    1DIPC   C4A10964  13.402   5.856   5.487  0.1049 -0.1347 -0.1879
    1DIPC   C1B10965  13.597   5.158   5.944  0.1211 -0.1252  0.1091
    1DIPC   D2B10966  13.254   5.383   5.719 -0.0839 -0.1520 -0.2783
    1DIPC   D3B10967  12.868   5.222   5.575 -0.0932 -0.1295  0.3023
    1DIPC   C4B10968  12.766   5.274   5.245  0.0600  0.1637 -0.0839
    1DIPC   NC310969  26.208  20.309   6.861  0.0736  0.1123  0.0077
    1DIPC   PO410970  26.163  20.286   6.419 -0.1467  0.3598  0.0349
    1DIPC   GL110971  26.044  20.084   6.030 -0.0482  0.3693  0.3148
    1DIPC   GL210972  25.863  19.893   5.865 -0.3782  0.0548 -0.2307
    1DIPC   C1A10973  25.814  20.357   5.701  0.0958  0.1333 -0.1849
    1DIPC   D2A10974  25.544  20.268   5.302  0.0703 -0.1992 -0.0739
    1DIPC   D3A10975  25.187  20.531   5.225  0.1551  0.0406 -0.0165
    1DIPC   C4A10976  24.910  20.423   4.924  0.0346  0.0482 -0.2350
    1DIPC   C1B10977  25.886  19.917   5.439  0.0476  0.0350  0.3292
    1DIPC   D2B10978  25.960  19.829   5.067  0.1046  0.0205 -0.1504
    1DIPC   D3B10979  25.924  19.469   4.840  0.3457 -0.2653 -0.1850
    1DIPC   C4B10980  26.001  19.571   4.368 -0.0010  0.2433  0.1218
    1DIPC   NC310981   5.983  27.656   7.114  0.0051 -0.2324  0.2382
    1DIPC   PO410982   5.731  27.798   6.765  0.4407  0.1826  0.3073
    1DIPC   GL110983   5.831  27.879   6.410  0.0885  0.0889 -0.0727
    1DIPC   GL210984   5.657  28.057   6.299 -0.2592  0.0050  0.1747
    1DIPC   C1A10985   6.146  27.693   6.144 -0.1077 -0.1718 -0.3593
    1DIPC   D2A10986   6.603  27.553   5.897 -0.1344 -0.0071 -0.2898
    1DIPC   D3A10987   6.893  27.334   6.072  0.2260  0.1225 -0.1804
    1DIPC   C4A10988   7.075  26.827   5.854 -0.0258 -0.2407 -0.0885
    1DIPC   C1B10989   5.532  27.686   6.040  0.0126  0.1354 -0.1664
    1DIPC   D2B10990   5.184  27.794   5.728  0.0215 -0.1131 -0.3251
    1DIPC   D3B10991   5.145  28.285   5.590  0.2579 -0.0318  0.0775
    1DIPC   C4B10992   5.401  28.656   5.684  0.0573 -0.0493  0.0883
    1DIPC   NC310993  23.180   1.627   7.436 -0.0764  0.0027  0.0198
    1DIPC   PO410994  23.336   2.016   7.466 -0.0108 -0.2747  0.1123
    1DIPC   GL110995  23.327   1.970   7.080 -0.1301  0.0968  0.0461
    1DIPC   GL210996  23.013   1.885   6.994 -0.2508  0.0419 -0.2513
    1DIPC   C1A10997  23.503   2.032   6.612 -0.4761  0.0073 -0.2016
    1DIPC   D2A10998  23.817   2.109   6.479 -0.0560  0.1068  0.1279
    1DIPC   D3A10999  24.197   1.992   6.573  0.0480  0.1032  0.2860
    1DIPC   C4A11000  24.362   1.619   6.641 -0.0084  0.2162 -0.1350
    1DIPC   C1B11001  22.883   1.896   6.549 -0.0442 -0.0969  0.1189
    1DIPC   D2B11002  22.599   2.045   6.313 -0.2891 -0.5360 -0.1964
    1DIPC   D3B11003  22.782   1.860   5.975  0.0254 -0.1527  0.2987
    1DIPC   C4B11004  23.143   2.007   6.058  0.2064  0.0231 -0.1075
    1DIPC   NC311005   3.928  10.948   6.892  0.0804  0.1366  0.0987
    1DIPC   PO411006   3.406  10.716   7.082 -0.2444  0.0155  0.0861
    1DIPC   GL111007   3.414  10.787   6.563 -0.2205 -0.0345 -0.0153
    1DIPC   GL211008   3.655  10.704   6.433  0.1740  0.0231  0.3295
    1DIPC   C1A11009   3.365  10.800   6.037 -0.0343  0.0810 -0.0537
    1DIPC   D2A11010   3.026  11.014   5.768 -0.0132  0.0788  0.0799
    1DIPC   D3A11011   2.858  10.678   5.496  0.0036 -0.2481  0.3241
    1DIPC   C4A11012   2.781  10.537   5.063  0.0303 -0.0529 -0.0755
    1DIPC   C1B11013   3.854  10.884   6.066 -0.1524  0.1563  0.0734
    1DIPC   D2B11014   3.888  10.903   5.528 -0.0617  0.2538 -0.0364
    1DIPC   D3B11015   4.421  10.904   5.507  0.0228 -0.0722 -0.0266
    1DIPC   C4B11016   4.686  11.068   5.166 -0.0295 -0.1355 -0.0830
    1DIPC   NC311017   6.670   3.516   7.161  0.5102 -0.0128  0.1182
    1DIPC   PO411018   7.108   3.626   7.102 -0.3170  0.0890  0.0586
    1DIPC   GL111019   7.309   3.313   6.842 -0.0239  0.1046 -0.0293
    1DIPC   GL211020   7.338   2.984   6.785  0.1393  0.3536  0.0826
    1DIPC   C1A11021   7.713   3.363   6.694  0.1036  0.2825 -0.0038
    1DIPC   D2A11022   8.007   3.160   6.552  0.0146  0.0464 -0.2994
    1DIPC   D3A11023   8.465   3.200   6.273 -0.0769  0.0522  0.1335
    1DIPC   C4A11024   8.542   3.583   5.916  0.1280  0.1085 -0.1197
    1DIPC   C1B11025   7.141   2.592   6.566 -0.0022 -0.1039 -0.3121
    1DIPC   D2B11026   6.754   2.474   6.356 -0.2119  0.0579 -0.0602
    1DIPC   D3B11027   6.505   2.095   6.278 -0.0374 -0.1059  0.0674
    1DIPC   C4B11028   6.142   2.122   6.440  0.1143 -0.1497 -0.0327
    1DIPC   NC311029  23.232   2.953   7.534 -0.1174 -0.1027 -0.3297
    1DIPC   PO411030  22.883   2.854   7.235  0.0719  0.0039 -0.2805
    1DIPC   GL111031  22.869   2.760   6.862  0.0190  0.2187  0.1211
    1DIPC   GL211032  22.546   2.657   6.881 -0.2542 -0.0270 -0.2297
    1DIPC   C1A11033  22.913   2.900   6.368  0.3876 -0.0151 -0.0363
    1DIPC   D2A11034  23.249   2.925   6.156  0.3280  0.0044 -0.0537
    1DIPC   D3A11035  23.145   2.760   5.731 -0.0503 -0.1921  0.0935
    1DIPC   C4A11036  23.461   2.756   5.464  0.1992  0.3124 -0.1462
    1DIPC   C1B11037  22.525   2.528   6.425  0.0739 -0.1885 -0.0229
    1DIPC   D2B11038  22.255   2.363   6.010  0.0081 -0.2405 -0.2500
    1DIPC   D3B11039  21.966   2.336   6.293  0.0075  0.1187 -0.3392
    1DIPC   C4B11040  22.131   1.955   6.406  0.0332 -0.1068 -0.0771
    1DIPC   NC311041  28.520   0.020   6.251  0.0429 -0.0264 -0.1278
    1DIPC   PO411042  28.845   0.284   6.564  0.0852  0.4982 -0.1170
    1DIPC   GL111043  29.041   0.134   6.237  0.0778  0.2433 -0.1167
    1DIPC   GL211044  29.354   0.271   5.977 -0.1586 -0.0992  0.1019
    1DIPC   C1A11045  29.109  -0.168   5.860  0.0245  0.1158  0.1930
    1DIPC   D2A11046  29.050  -0.097   5.377 -0.1787 -0.1463 -0.2256
    1DIPC   D3A11047  28.916  -0.546   5.556 -0.1949  0.0056  0.1267
    1DIPC   C4A11048  28.926  -1.008   5.410  0.2765  0.2546  0.1153
    1DIPC   C1B11049  29.437   0.290   5.571 -0.0191  0.0219  0.0032
    1DIPC   D2B11050  29.391   0.265   5.099 -0.3299 -0.0119  0.0516
    1DIPC   D3B11051  29.576  -0.151   5.129 -0.3426  0.0869  0.0513
    1DIPC   C4B11052  29.601  -0.264   5.541 -0.1703  0.1351  0.2033
    1DIPC   NC311053  22.876  26.015   6.650  0.0230  0.1075  0.1683
    1DIPC   PO411054  22.723  25.563   6.642 -0.3085  0.0595 -0.2960
    1DIPC   GL111055  22.638  25.546   6.236  0.2350 -0.1822  0.0990
    1DIPC   GL211056  22.761  25.818   6.088 -0.0259 -0.2422 -0.1580
    1DIPC   C1A11057  22.271  25.598   6.001  0.3472 -0.3177 -0.0050
    1DIPC   D2A11058  22.007  25.613   5.622  0.1751  0.1746  0.1404
    1DIPC   D3A11059  21.764  25.434   5.117  0.2513 -0.1275 -0.1039
    1DIPC   C4A11060  21.905  25.522   4.648 -0.2616  0.3229  0.0703
    1DIPC   C1B11061  22.932  25.599   5.881  0.1406 -0.2704 -0.1867
    1DIPC   D2B11062  23.173  25.375   5.490 -0.1706  0.0918  0.0448
    1DIPC   D3B11063  22.959  25.477   5.200 -0.2006  0.0456  0.1559
    1DIPC   C4B11064  22.801  25.167   4.858 -0.2584  0.0984  0.0158
    1DIPC   NC311065  12.698  26.445   6.089 -0.1631 -0.2939 -0.1759
    1DIPC   PO411066  12.688  26.019   6.186 -0.1275  0.1198  0.1224
    1DIPC   GL111067  12.610  26.069   5.724 -0.0063  0.1022  0.2842
    1DIPC   GL211068  12.940  26.067   5.763 -0.1535 -0.2193 -0.1138
    1DIPC   C1A11069  12.755  26.011   5.252  0.0307  0.3137  0.2326
    1DIPC   D2A11070  12.711  25.909   4.843  0.1740 -0.1584 -0.0464
    1DIPC   D3A11071  13.023  26.068   4.501  0.1624  0.2157 -0.2279
    1DIPC   C4A11072  13.075  26.216   4.075  0.0504  0.1878 -0.0044
    1DIPC   C1B11073  13.206  26.263   5.389 -0.1309 -0.0021  0.0392
    1DIPC   D2B11074  13.570  26.573   5.282 -0.0142 -0.1748 -0.0959
    1DIPC   D3B11075  13.737  26.956   5.059  0.2858  0.0755 -0.1730
    1DIPC   C4B11076  14.231  27.041   4.955 -0.1258 -0.0122  0.0913
    1DIPC   NC311077  13.688  23.759   6.386  0.2235  0.2460 -0.1662
    1DIPC   PO411078  13.340  23.768   6.138 -0.0175 -0.1578 -0.0051
    1DIPC   GL111079  13.197  24.084   5.826  0.3961 -0.0958  0.2444
    1DIPC   GL211080  12.960  24.335   5.755  0.0307 -0.0888 -0.0643
    1DIPC   C1A11081  13.131  24.032   5.303  0.2333 -0.2433  0.1976
    1DIPC   D2A11082  13.147  24.201   4.901  0.0339  0.0631 -0.1819
    1DIPC   D3A11083  13.163  24.547   5.195  0.1690  0.1446 -0.0367
    1DIPC   C4A11084  13.332  24.463   5.481 -0.2059 -0.1425  0.5257
    1DIPC   C1B11085  12.652  24.719   5.644  0.1235 -0.1274  0.1685
    1DIPC   D2B11086  12.677  25.072   5.285 -0.1563 -0.1201  0.0025
    1DIPC   D3B11087  12.756  24.749   4.927  0.2214  0.2312  0.1441
    1DIPC   C4B11088  13.033  25.061   4.668  0.0717  0.0764  0.1710
    1DIPC   NC311089   9.765  22.726   6.289 -0.0213 -0.2274  0.0509
    1DIPC   PO411090  10.179  22.928   6.324 -0.0634  0.2931  0.0676
    1DIPC   GL111091  10.240  22.713   5.896  0.1288  0.1092  0.2012
    1DIPC   GL211092  10.262  22.453   5.941 -0.1059 -0.1437 -0.1416
    1DIPC   C1A11093   9.936  22.639   5.626  0.1623 -0.0454  0.0051
    1DIPC   D2A11094   9.972  22.663   5.194 -0.1332  0.1433  0.1786
    1DIPC   D3A11095   9.744  22.447   4.964  0.1353  0.0244  0.0971
    1DIPC   C4A11096   9.301  22.560   4.699 -0.1195 -0.2286 -0.3750
    1DIPC   C1B11097  10.233  22.167   5.607  0.1280 -0.0677 -0.0173
    1DIPC   D2B11098  10.119  22.056   5.187 -0.1236 -0.1109  0.3080
    1DIPC   D3B11099   9.655  22.122   5.309 -0.1744  0.0970  0.4008
    1DIPC   C4B11100   9.310  22.271   5.122  0.2313  0.1977  0.2893
    1DIPC   NC311101  24.581  15.222   5.803  0.3037  0.2924 -0.0634
    1DIPC   PO411102  24.434  15.575   6.156 -0.0897  0.2616 -0.3501
    1DIPC   GL111103  24.266  15.564   5.721 -0.1470 -0.0418  0.1745
    1DIPC   GL211104  24.114  15.251   5.545  0.3884 -0.3456 -0.1450
    1DIPC   C1A11105  24.436  15.713   5.254 -0.0809 -0.3070 -0.1258
    1DIPC   D2A11106  24.478  15.665   4.768 -0.0070 -0.4518 -0.3315
    1DIPC   D3A11107  24.255  15.721   4.430 -0.1932  0.0512 -0.1681
    1DIPC   C4A11108  24.168  16.140   4.464 -0.0880  0.0127  0.0173
    1DIPC   C1B11109  24.231  15.334   5.048 -0.3229 -0.2785 -0.0787
    1DIPC   D2B11110  24.131  15.229   4.618  0.1577  0.0494  0.1391
    1DIPC   D3B11111  24.659  15.259   4.518 -0.0673 -0.2086 -0.0715
    1DIPC   C4B11112  24.998  15.040   4.659  0.0331  0.1437 -0.0220
    1DIPC   NC311113   4.267   5.739   7.369 -0.2874  0.1195  0.0201
    1DIPC   PO411114   3.970   5.778   7.084  0.1263 -0.2203 -0.4026
    1DIPC   GL111115   3.821   5.600   6.674  0.3409 -0.0325  0.2121
    1DIPC   GL211116   4.084   5.532   6.442  0.1546  0.1683  0.0566
    1DIPC   C1A11117   3.623   5.695   6.276  0.1887  0.3274 -0.0516
    1DIPC   D2A11118   3.483   5.793   5.847  0.2967 -0.0401  0.3636
    1DIPC   D3A11119   3.032   5.681   5.904  0.2002  0.0190 -0.1905
    1DIPC   C4A11120   3.230   5.390   6.157 -0.2488  0.3629  0.1034
    1DIPC   C1B11121   3.953   5.166   6.415 -0.0816 -0.0925  0.3372
    1DIPC   D2B11122   3.579   4.970   6.237 -0.0191 -0.0109  0.1630
    1DIPC   D3B11123   3.791   5.121   5.953 -0.2765  0.0529 -0.0795
    1DIPC   C4B11124   3.798   5.332   5.415 -0.0643 -0.0507 -0.0203
    1DIPC   NC311125  29.760   8.601   6.255  0.2043  0.2146  0.2198
    1DIPC   PO411126  29.993   8.922   6.277 -0.1519  0.0810 -0.2061
    1DIPC   GL111127  30.010   8.879   5.834 -0.1875 -0.0074  0.1293
    1DIPC   GL211128  30.166   8.623   5.638 -0.1474 -0.1791  0.0021
    1DIPC   C1A11129  30.262   9.095   5.495 -0.0047 -0.2104 -0.2258
    1DIPC   D2A11130  30.400   9.085   5.049  0.0235 -0.2233 -0.1795
    1DIPC   D3A11131  30.179   9.376   4.757 -0.1007  0.1829  0.0817
    1DIPC   C4A11132  30.161   9.879   4.691 -0.1511  0.1066 -0.2230
    1DIPC   C1B11133  30.634   8.671   5.531 -0.0185 -0.1805  0.1298
    1DIPC   D2B11134  30.995   8.734   5.298  0.1791  0.0967 -0.2927
    1DIPC   D3B11135  30.908   8.919   4.822 -0.0067 -0.0998 -0.2397
    1DIPC   C4B11136  30.636   9.239   4.610  0.0439 -0.3491  0.3519
    1DIPC   NC311137   2.255  21.395   5.618 -0.0563 -0.1862  0.1028
    1DIPC   PO411138   2.051  21.015   5.662  0.0233  0.0201  0.0055
    1DIPC   GL111139   2.042  20.924   5.269  0.1015 -0.0534 -0.1184
    1DIPC   GL211140   1.965  21.181   5.094 -0.1043 -0.2904  0.2695
    1DIPC   C1A11141   1.913  20.568   5.061  0.0805  0.2090  0.0817
    1DIPC   D2A11142   1.919  20.369   4.632 -0.1639 -0.4298 -0.1527
    1DIPC   D3A11143   1.559  20.693   4.403  0.2828  0.0824 -0.2345
    1DIPC   C4A11144   1.805  20.984   4.010 -0.1166  0.4267  0.2814
    1DIPC   C1B11145   2.068  21.408   4.652 -0.2766  0.0333  0.0168
    1DIPC   D2B11146   2.283  21.720   4.556  0.2157 -0.1693 -0.1580
    1DIPC   D3B11147   2.504  21.677   4.159 -0.0645 -0.1368 -0.0633
    1DIPC   C4B11148   2.912  21.432   4.173 -0.2777  0.0359  0.0237
    1DIPC   NC311149   9.710  24.958   6.716 -0.1179 -0.3785 -0.0880
    1DIPC   PO411150   9.937  25.169   6.335 -0.1275 -0.0829  0.1411
    1DIPC   GL111151   9.784  25.181   5.837 -0.0867 -0.0721  0.1003
    1DIPC   GL211152   9.569  25.335   5.620 -0.0765 -0.1229 -0.2809
    1DIPC   C1A11153   9.895  25.003   5.327 -0.3517  0.2738 -0.0002
    1DIPC   D2A11154   9.957  24.773   4.910 -0.0321  0.1829 -0.0119
    1DIPC   D3A11155   9.915  25.161   4.788 -0.0279  0.0725 -0.3115
    1DIPC   C4A11156   9.747  25.446   5.147 -0.0955 -0.0303  0.0372
    1DIPC   C1B11157   9.317  25.521   5.320  0.0389  0.2436  0.0536
    1DIPC   D2B11158   9.367  25.886   4.967  0.2488 -0.0828 -0.2514
    1DIPC   D3B11159   9.290  25.973   4.546 -0.0013  0.0984 -0.1023
    1DIPC   C4B11160   9.249  25.675   4.307  0.3687  0.0309  0.1276
    1DIPC   NC311161  19.392   3.519   6.834  0.1771  0.1075 -0.2122
    1DIPC   PO411162  19.109   3.443   6.645  0.1244  0.0000 -0.1477
    1DIPC   GL111163  19.064   3.352   6.239 -0.0706  0.0030 -0.1574
    1DIPC   GL211164  19.194   3.555   5.948  0.0559 -0.1242 -0.0402
    1DIPC   C1A11165  19.006   3.065   5.981 -0.0853 -0.0117 -0.1828
    1DIPC   D2A11166  19.327   2.888   5.699  0.1613  0.1264  0.3686
    1DIPC   D3A11167  19.297   2.396   5.675 -0.0292  0.1035  0.0146
    1DIPC   C4A11168  19.281   2.160   5.975  0.2324  0.1191 -0.1276
    1DIPC   C1B11169  19.070   3.372   5.520 -0.0285 -0.1127 -0.0075
    1DIPC   D2B11170  19.416   3.100   5.262  0.0259 -0.1102  0.1005
    1DIPC   D3B11171  19.306   2.835   4.880 -0.0413  0.0595  0.1111
    1DIPC   C4B11172  19.466   2.786   4.442  0.2894 -0.1969  0.2361
    1DIPC   NC311173  21.636  20.063   7.226 -0.2250 -0.0072  0.0102
    1DIPC   PO411174  21.541  19.795   6.837 -0.1155 -0.1484  0.0154
    1DIPC   GL111175  21.648  19.860   6.384 -0.1263 -0.2080 -0.1298
    1DIPC   GL211176  21.924  19.656   6.267  0.1085  0.3820 -0.5116
    1DIPC   C1A11177  21.658  19.969   5.891  0.0111  0.1164  0.0590
    1DIPC   D2A11178  21.711  20.060   5.516  0.2965  0.0457  0.2650
    1DIPC   D3A11179  21.392  19.852   5.413  0.0105  0.1472 -0.3765
    1DIPC   C4A11180  21.126  19.559   5.651  0.3297 -0.1340  0.2090
    1DIPC   C1B11181  22.072  19.437   5.959  0.0459  0.1385 -0.1419
    1DIPC   D2B11182  22.374  19.214   5.795 -0.1456  0.1132  0.2252
    1DIPC   D3B11183  22.556  19.218   5.289 -0.1913 -0.0770  0.1873
    1DIPC   C4B11184  22.214  19.288   4.910  0.1226 -0.1162  0.3147
    1DIPC   NC311185  28.850  14.788   6.220 -0.2643  0.3198  0.0755
    1DIPC   PO411186  29.255  14.867   6.172 -0.1263  0.2135 -0.1757
    1DIPC   GL111187  29.117  15.047   5.822  0.0857 -0.3170  0.0341
    1DIPC   GL211188  29.366  15.273   5.847 -0.1416 -0.0707  0.1715
    1DIPC   C1A11189  28.911  14.944   5.416  0.2742  0.1740 -0.2181
    1DIPC   D2A11190  28.725  15.011   5.048 -0.1001 -0.0535 -0.1092
    1DIPC   D3A11191  28.692  14.685   4.769  0.1691 -0.3347  0.0153
    1DIPC   C4A11192  28.537  14.659   4.370 -0.1026  0.0578 -0.2910
    1DIPC   C1B11193  29.241  15.366   5.374 -0.1077 -0.1959  0.0025
    1DIPC   D2B11194  29.090  15.416   5.016  0.2707 -0.0221 -0.0583
    1DIPC   D3B11195  29.072  15.435   4.502 -0.2473  0.1416 -0.0405
    1DIPC   C4B11196  28.686  15.164   4.357  0.2759 -0.2904  0.1810
    1DIPC   NC311197  16.582   2.403   6.407 -0.0397  0.1655  0.0508
    1DIPC   PO411198  16.705   1.970   6.369 -0.0593 -0.0661 -0.2920
    1DIPC   GL111199  16.996   1.871   5.955  0.1661 -0.1520  0.0785
    1DIPC   GL211200  17.324   1.946   5.839  0.0575  0.0763  0.1039
    1DIPC   C1A11201  17.045   1.714   5.451  0.0525 -0.0767 -0.0361
    1DIPC   D2A11202  17.200   1.694   4.960 -0.2952 -0.0048 -0.0937
    1DIPC   D3A11203  16.832   1.460   4.844 -0.2164  0.2854 -0.1826
    1DIPC   C4A11204  16.484   1.690   4.650 -0.0085 -0.0304 -0.2207
    1DIPC   C1B11205  17.580   1.854   5.461 -0.0653  0.1855 -0.0468
    1DIPC   D2B11206  17.670   1.927   4.997 -0.1192 -0.1155 -0.2062
    1DIPC   D3B11207  17.920   2.195   5.178 -0.0237  0.0604  0.0265
    1DIPC   C4B11208  18.385   2.244   5.328 -0.2450  0.0823 -0.2129
    1DIPC   NC311209  14.252  28.497   7.024 -0.2032  0.0704 -0.0002
    1DIPC   PO411210  14.729  28.347   6.877 -0.1316 -0.0125 -0.0629
    1DIPC   GL111211  14.642  28.275   6.438  0.0375  0.1665 -0.0596
    1DIPC   GL211212  14.931  28.233   6.274 -0.1694  0.3251 -0.0161
    1DIPC   C1A11213  14.434  28.239   6.112 -0.1179 -0.1192  0.1327
    1DIPC   D2A11214  14.480  28.156   5.657 -0.2517  0.0313 -0.4939
    1DIPC   D3A11215  14.335  28.263   5.190  0.3135 -0.0320 -0.3280
    1DIPC   C4A11216  13.871  28.371   5.271 -0.0231  0.0394 -0.1595
    1DIPC   C1B11217  15.071  28.149   5.822  0.4146 -0.1176 -0.1096
    1DIPC   D2B11218  15.038  28.144   5.402  0.1812  0.0939 -0.2127
    1DIPC   D3B11219  14.872  28.092   4.985  0.0433 -0.2714  0.1532
    1DIPC   C4B11220  14.827  27.705   4.892  0.0025 -0.2289  0.1980
    1DIPC   NC311221  14.107   2.085   7.146  0.0486 -0.0378  0.1009
    1DIPC   PO411222  14.069   1.675   7.020  0.1451 -0.1133  0.0782
    1DIPC   GL111223  14.183   1.617   6.592  0.0572  0.3211 -0.0387
    1DIPC   GL211224  14.130   1.425   6.451  0.0399 -0.1120 -0.0415
    1DIPC   C1A11225  13.911   1.889   6.269 -0.1403  0.0558  0.0465
    1DIPC   D2A11226  13.849   1.898   5.804  0.1582 -0.1266  0.2407
    1DIPC   D3A11227  13.738   2.250   5.509 -0.1992  0.0121  0.3180
    1DIPC   C4A11228  13.583   2.189   5.090 -0.0893 -0.2920  0.3410
    1DIPC   C1B11229  14.157   1.361   6.049  0.2255 -0.0135  0.0219
    1DIPC   D2B11230  14.255   1.551   5.632  0.2162  0.1582 -0.1054
    1DIPC   D3B11231  14.629   1.394   5.760  0.0627 -0.1420 -0.2090
    1DIPC   C4B11232  14.616   1.199   6.222  0.0815  0.0007 -0.0557
    1DIPC   NC311233   9.897   3.372   7.888  0.3165 -0.3396 -0.0573
    1DIPC   PO411234   9.839   3.341   7.397 -0.0245  0.0801 -0.1502
    1DIPC   GL111235  10.130   3.409   7.296  0.0304  0.0629  0.0910
    1DIPC   GL211236  10.294   3.705   7.079 -0.4110 -0.2370  0.0638
    1DIPC   C1A11237  10.395   3.156   7.028  0.2765  0.4225 -0.0737
    1DIPC   D2A11238  10.836   3.072   7.021 -0.2200 -0.3262 -0.1082
    1DIPC   D3A11239  10.619   2.816   6.639  0.0135 -0.2284  0.1117
    1DIPC   C4A11240  10.881   2.386   6.579  0.1588  0.2333 -0.2039
    1DIPC   C1B11241  10.305   3.604   6.744  0.1981 -0.1185 -0.1969
    1DIPC   D2B11242   9.996   3.564   6.554 -0.2397 -0.0941 -0.3174
    1DIPC   D3B11243   9.892   3.218   6.821 -0.2439  0.0691  0.1220
    1DIPC   C4B11244   9.604   2.788   6.998 -0.2961  0.1528 -0.0483
    1DIPC   NC311245  22.581  13.555   6.472  0.1725 -0.1361 -0.0156
    1DIPC   PO411246  22.797  13.189   6.336 -0.1029  0.0812  0.1763
    1DIPC   GL111247  22.739  13.238   5.842 -0.2220  0.4078  0.0845
    1DIPC   GL211248  22.874  12.866   5.790  0.1579 -0.1363  0.0188
    1DIPC   C1A11249  22.675  13.346   5.347  0.0241  0.0901 -0.0741
    1DIPC   D2A11250  22.308  13.266   5.034 -0.0451 -0.0008 -0.1252
    1DIPC   D3A11251  22.102  13.103   5.303  0.0320 -0.1887  0.0312
    1DIPC   C4A11252  22.014  13.243   5.727  0.2743 -0.2510 -0.0627
    1DIPC   C1B11253  22.407  12.866   5.646 -0.2437  0.0180  0.0502
    1DIPC   D2B11254  22.014  12.737   5.612 -0.0241 -0.0426 -0.0507
    1DIPC   D3B11255  22.193  12.499   5.298  0.2238  0.4102 -0.0880
    1DIPC   C4B11256  22.425  12.205   5.407 -0.2140  0.0771 -0.0513
    1DIPC   NC311257  24.485  24.024   6.841  0.1719  0.3856  0.5705
    1DIPC   PO411258  24.041  23.815   6.892  0.0212 -0.2706 -0.2900
    1DIPC   GL111259  24.049  23.874   6.506  0.1252  0.0932 -0.3583
    1DIPC   GL211260  23.950  24.057   6.282  0.0408  0.0390  0.3614
    1DIPC   C1A11261  24.336  23.725   6.143 -0.0116 -0.1166  0.0725
    1DIPC   D2A11262  24.348  23.457   5.819 -0.0415 -0.1905  0.1289
    1DIPC   D3A11263  24.275  23.317   5.389  0.3783 -0.1247 -0.1712
    1DIPC   C4A11264  24.474  22.953   5.147  0.2770 -0.2443 -0.0376
    1DIPC   C1B11265  23.986  23.932   5.855  0.0906  0.2991  0.1263
    1DIPC   D2B11266  23.858  23.658   5.397 -0.0762 -0.0893 -0.0312
    1DIPC   D3B11267  24.296  23.912   5.477 -0.0677 -0.0533 -0.2052
    1DIPC   C4B11268  24.518  24.210   5.318 -0.1447 -0.1866  0.2512
    1DIPC   NC311269  22.394  18.072   7.199 -0.1085 -0.1522 -0.0632
    1DIPC   PO411270  22.873  18.147   7.062 -0.0239  0.0333 -0.0755
    1DIPC   GL111271  22.843  18.199   6.651  0.0023  0.0810  0.0430
    1DIPC   GL211272  23.102  18.229   6.336 -0.3168  0.1218 -0.1591
    1DIPC   C1A11273  22.662  18.087   6.257 -0.0021  0.0442 -0.3011
    1DIPC   D2A11274  22.617  17.830   5.891  0.1065 -0.2330  0.2514
    1DIPC   D3A11275  22.084  17.742   5.764  0.0833 -0.2140 -0.1675
    1DIPC   C4A11276  21.951  17.438   5.469 -0.6427  0.1059  0.1654
    1DIPC   C1B11277  22.991  18.420   6.065  0.0849  0.0341 -0.1193
    1DIPC   D2B11278  22.670  18.406   5.754  0.0444  0.1311  0.1793
    1DIPC   D3B11279  22.554  18.799   5.484  0.1658  0.0513  0.1199
    1DIPC   C4B11280  22.299  18.731   5.139 -0.3075 -0.0066  0.2388
    1DIPC   NC311281  17.250  27.516   7.067  0.3461  0.2198  0.0498
    1DIPC   PO411282  16.837  27.592   6.976 -0.0910  0.3074 -0.1684
    1DIPC   GL111283  16.979  27.674   6.488 -0.1594  0.0608 -0.0677
    1DIPC   GL211284  17.282  27.815   6.577 -0.0591  0.1993 -0.1657
    1DIPC   C1A11285  17.241  27.924   6.133 -0.0039 -0.1433 -0.0032
    1DIPC   D2A11286  17.275  27.853   5.759 -0.1532  0.2629 -0.0399
    1DIPC   D3A11287  17.303  28.059   5.328 -0.0952 -0.2292 -0.0695
    1DIPC   C4A11288  17.385  28.404   5.164 -0.3902 -0.0048 -0.0387
    1DIPC   C1B11289  17.540  27.493   6.365  0.1105 -0.0412  0.1503
    1DIPC   D2B11290  17.766  27.171   6.143 -0.1524 -0.1569  0.1361
    1DIPC   D3B11291  17.734  27.395   5.812  0.0666 -0.2307 -0.0995
    1DIPC   C4B11292  18.013  27.671   5.595 -0.2657 -0.2195 -0.0076
    1DIPC   NC311293   3.291   3.555   6.779  0.3627 -0.2003  0.0533
    1DIPC   PO411294   3.465   3.420   6.435 -0.1727 -0.1699 -0.0901
    1DIPC   GL111295   3.373   3.494   6.097 -0.3061  0.1483 -0.1499
    1DIPC   GL211296   3.404   3.131   5.936  0.0111  0.1485  0.0411
    1DIPC   C1A11297   2.990   3.790   5.901  0.1183 -0.3981  0.0793
    1DIPC   D2A11298   2.609   3.707   5.617  0.0327  0.1222  0.0870
    1DIPC   D3A11299   2.673   3.242   5.464 -0.1166 -0.0113 -0.2803
    1DIPC   C4A11300   2.374   2.927   5.185 -0.2103  0.0131 -0.0122
    1DIPC   C1B11301   3.553   3.337   5.583 -0.1043  0.1102  0.0804
    1DIPC   D2B11302   3.439   3.388   5.036  0.1398 -0.2648  0.0893
    1DIPC   D3B11303   3.143   3.206   4.802 -0.0892  0.1042 -0.4601
    1DIPC   C4B11304   2.891   3.034   5.049 -0.0733  0.1059  0.0299
    1DIPC   NC311305   3.855   7.282   7.332  0.2188  0.0839 -0.0293
    1DIPC   PO411306   3.663   7.537   6.981 -0.1382  0.2505  0.1929
    1DIPC   GL111307   3.473   7.587   6.594 -0.2454  0.2360 -0.0790
    1DIPC   GL211308   3.122   7.554   6.603 -0.0739  0.0757 -0.1078
    1DIPC   C1A11309   3.335   7.891   6.270 -0.0094  0.1878  0.0336
    1DIPC   D2A11310   3.357   8.344   6.063 -0.1781  0.0167  0.2784
    1DIPC   D3A11311   3.402   8.419   5.576  0.0286 -0.4730  0.2768
    1DIPC   C4A11312   3.331   8.508   5.154 -0.1828 -0.0188  0.0113
    1DIPC   C1B11313   3.021   7.558   6.263  0.1162 -0.1904  0.2791
    1DIPC   D2B11314   2.995   7.850   5.903 -0.3475  0.0241  0.0952
    1DIPC   D3B11315   2.889   8.237   5.753  0.1304 -0.1646 -0.0668
    1DIPC   C4B11316   2.424   8.261   5.656  0.2248 -0.0741 -0.2447
    1DIPC   NC311317  14.242  27.544   6.937 -0.1670 -0.0125 -0.1718
    1DIPC   PO411318  14.051  27.994   7.129 -0.0045 -0.0001 -0.0340
    1DIPC   GL111319  13.843  27.854   6.699 -0.1689  0.1792  0.1598
    1DIPC   GL211320  13.544  28.035   6.563 -0.0053 -0.0945 -0.1834
    1DIPC   C1A11321  13.688  27.623   6.288  0.2046  0.1126 -0.1323
    1DIPC   D2A11322  13.586  27.182   6.470  0.1048  0.0904 -0.0062
    1DIPC   D3A11323  13.482  27.027   6.070  0.0739  0.0736  0.0669
    1DIPC   C4A11324  13.688  26.772   5.874 -0.0578 -0.0535 -0.3641
    1DIPC   C1B11325  14.018  28.011   6.272  0.0405 -0.1532  0.0819
    1DIPC   D2B11326  14.235  27.774   5.941 -0.0891  0.3425 -0.4510
    1DIPC   D3B11327  13.836  27.707   5.809  0.3067  0.3484 -0.0250
    1DIPC   C4B11328  13.486  27.466   5.599 -0.1165  0.1965  0.1135
    1DIPC   NC311329  16.337  20.206   7.071  0.1191 -0.1409  0.1502
    1DIPC   PO411330  16.299  20.521   6.682  0.2262  0.0122 -0.0043
    1DIPC   GL111331  16.572  20.797   6.612  0.1516 -0.1076  0.4737
    1DIPC   GL211332  16.410  21.030   6.455  0.0911 -0.1470  0.0303
    1DIPC   C1A11333  16.878  20.756   6.286 -0.1567  0.2231 -0.3675
    1DIPC   D2A11334  17.066  20.971   5.971 -0.2431 -0.1950  0.2573
    1DIPC   D3A11335  16.913  20.617   5.788 -0.0085  0.0522  0.1841
    1DIPC   C4A11336  16.513  20.418   6.081  0.0330 -0.1496 -0.1738
    1DIPC   C1B11337  16.491  20.946   6.070  0.3302  0.2033 -0.0439
    1DIPC   D2B11338  16.586  21.191   5.704  0.0996 -0.0698 -0.0773
    1DIPC   D3B11339  16.615  20.910   5.410  0.1054  0.2033  0.3413
    1DIPC   C4B11340  16.949  20.678   5.322  0.1639  0.0953  0.0074
    1DIPC   NC311341  13.281  29.451   7.066 -0.0697 -0.1149  0.0256
    1DIPC   PO411342  12.877  29.543   6.958  0.1483  0.0480 -0.0872
    1DIPC   GL111343  12.778  29.554   6.586  0.0149  0.2015 -0.0202
    1DIPC   GL211344  13.046  29.343   6.467  0.0668  0.1881 -0.0300
    1DIPC   C1A11345  12.619  29.596   6.145  0.2429 -0.3432 -0.0610
    1DIPC   D2A11346  12.523  29.348   5.734  0.1247 -0.1328  0.2272
    1DIPC   D3A11347  12.221  29.625   5.554 -0.0589  0.0331 -0.1526
    1DIPC   C4A11348  12.067  29.833   5.128 -0.2329  0.1447 -0.1228
    1DIPC   C1B11349  13.128  29.696   6.286  0.0509  0.0442 -0.0223
    1DIPC   D2B11350  13.005  29.857   5.876 -0.2802  0.3615 -0.2810
    1DIPC   D3B11351  12.655  29.873   5.684 -0.0072  0.0459 -0.0643
    1DIPC   C4B11352  12.512  30.063   5.201 -0.1175  0.1356  0.0968
    1DIPC   NC311353   6.474  24.604   6.726  0.2355 -0.0268 -0.1302
    1DIPC   PO411354   6.689  24.673   6.341  0.2189 -0.1699  0.2417
    1DIPC   GL111355   6.710  24.857   5.919 -0.0209  0.2106 -0.4174
    1DIPC   GL211356   6.402  24.992   5.958  0.3051  0.1283  0.1809
    1DIPC   C1A11357   6.875  24.742   5.568 -0.0145 -0.1413  0.1756
    1DIPC   D2A11358   6.877  24.594   5.219  0.0059 -0.2213  0.0361
    1DIPC   D3A11359   6.455  24.386   5.140 -0.1085  0.1073  0.0028
    1DIPC   C4A11360   6.319  24.248   4.702 -0.2569 -0.0330 -0.0018
    1DIPC   C1B11361   6.515  25.209   5.619 -0.4333 -0.0485 -0.0010
    1DIPC   D2B11362   6.770  25.633   5.667 -0.0872  0.1871 -0.0627
    1DIPC   D3B11363   6.680  26.062   5.551  0.3868 -0.0304 -0.2257
    1DIPC   C4B11364   6.319  26.218   5.739  0.0268  0.2831  0.2488
    1DIPC   NC311365  18.920   4.741   6.829 -0.0722 -0.1215  0.1314
    1DIPC   PO411366  18.664   4.701   6.418  0.1545  0.2121  0.2301
    1DIPC   GL111367  18.516   4.708   5.920 -0.0204  0.0105  0.1705
    1DIPC   GL211368  18.833   4.780   5.759  0.0480  0.0851 -0.2772
    1DIPC   C1A11369  18.424   4.499   5.546 -0.2563  0.0600 -0.1254
    1DIPC   D2A11370  18.635   4.416   5.193  0.1151  0.0238 -0.4201
    1DIPC   D3A11371  18.390   4.557   4.793 -0.2250  0.0117 -0.0306
    1DIPC   C4A11372  18.422   4.888   4.667  0.0424  0.0205 -0.0272
    1DIPC   C1B11373  18.923   4.777   5.273 -0.1365  0.1583 -0.0377
    1DIPC   D2B11374  18.763   5.117   4.926 -0.1623 -0.4013 -0.1152
    1DIPC   D3B11375  19.218   5.196   4.949  0.0977  0.2840  0.0541
    1DIPC   C4B11376  19.383   4.800   5.010 -0.1672 -0.0302  0.1983
    1DIPC   NC311377  29.270  13.353   5.724 -0.0746 -0.2976  0.2298
    1DIPC   PO411378  28.875  13.205   5.626 -0.1415 -0.0336  0.2877
    1DIPC   GL111379  29.118  12.960   5.509 -0.0023 -0.0371  0.0433
    1DIPC   GL211380  29.180  13.237   5.185  0.1315  0.2002  0.1076
    1DIPC   C1A11381  29.414  12.718   5.339  0.0998 -0.0289  0.0973
    1DIPC   D2A11382  29.431  12.535   4.885 -0.1466  0.0356 -0.0604
    1DIPC   D3A11383  29.579  12.506   4.559 -0.0923 -0.2496 -0.0257
    1DIPC   C4A11384  29.834  12.476   4.240 -0.1225  0.4494  0.1175
    1DIPC   C1B11385  29.093  12.889   5.007  0.2154 -0.1535  0.3259
    1DIPC   D2B11386  29.029  12.701   4.606  0.3822 -0.1203  0.3994
    1DIPC   D3B11387  28.879  12.374   4.914 -0.2013  0.1302  0.0695
    1DIPC   C4B11388  29.051  12.302   5.207  0.2130  0.0834 -0.2207
    1DIPC   NC311389   5.395   7.010   6.694 -0.3725 -0.0635 -0.0807
    1DIPC   PO411390   5.048   7.265   6.802 -0.1935 -0.2740 -0.0858
    1DIPC   GL111391   5.157   7.376   6.405  0.2733 -0.1729  0.1880
    1DIPC   GL211392   5.258   7.746   6.446 -0.1301  0.4678 -0.0062
    1DIPC   C1A11393   4.939   7.591   6.075 -0.0118 -0.0446  0.0609
    1DIPC   D2A11394   4.896   7.716   5.694  0.1736  0.2173  0.0755
    1DIPC   D3A11395   4.408   7.721   5.793  0.1307  0.1689  0.1861
    1DIPC   C4A11396   4.376   7.360   5.990  0.1382 -0.0644  0.1171
    1DIPC   C1B11397   5.440   7.699   5.995 -0.1939 -0.2071 -0.1038
    1DIPC   D2B11398   5.671   7.599   5.622  0.0394  0.1244 -0.1981
    1DIPC   D3B11399   5.876   7.920   5.398 -0.1859 -0.3047  0.0239
    1DIPC   C4B11400   6.108   7.949   5.053 -0.4115  0.1181  0.0147
    1DIPC   NC311401  21.642   4.463   6.602  0.1399  0.2833 -0.0618
    1DIPC   PO411402  21.224   4.498   6.637  0.0468  0.0077  0.1450
    1DIPC   GL111403  21.002   4.532   6.300  0.2015  0.1783  0.0087
    1DIPC   GL211404  20.991   4.227   6.219  0.2730  0.0816  0.2673
    1DIPC   C1A11405  20.998   4.703   5.889  0.1333 -0.0668 -0.0109
    1DIPC   D2A11406  20.676   4.746   5.669  0.0783  0.2165  0.0636
    1DIPC   D3A11407  20.771   4.854   5.281 -0.0963  0.1717  0.1161
    1DIPC   C4A11408  20.768   4.596   4.973  0.3518 -0.0456  0.1169
    1DIPC   C1B11409  20.950   4.241   5.822 -0.0176 -0.1908 -0.1087
    1DIPC   D2B11410  20.710   4.276   5.411  0.3294 -0.0192  0.1072
    1DIPC   D3B11411  20.523   4.161   4.916 -0.0427  0.0876  0.0619
    1DIPC   C4B11412  20.307   4.450   4.602  0.2577 -0.1288 -0.1289
    1DIPC   NC311413   1.343   1.728   6.628  0.1245 -0.3340  0.3217
    1DIPC   PO411414   0.966   1.524   6.522 -0.0635  0.0290  0.6217
    1DIPC   GL111415   0.865   1.488   6.085  0.1169  0.1658  0.0268
    1DIPC   GL211416   0.688   1.166   6.039 -0.1738 -0.2934 -0.0846
    1DIPC   C1A11417   1.116   1.422   5.714 -0.1655  0.1100 -0.1395
    1DIPC   D2A11418   1.213   1.418   5.215  0.3895 -0.3797  0.0640
    1DIPC   D3A11419   1.437   0.994   5.135  0.1805  0.0131 -0.0534
    1DIPC   C4A11420   1.712   0.743   4.827 -0.0539 -0.0466  0.0222
    1DIPC   C1B11421   0.495   0.968   5.773 -0.2393 -0.1833  0.0635
    1DIPC   D2B11422   0.276   1.195   5.588 -0.2195 -0.2498 -0.0330
    1DIPC   D3B11423   0.277   1.446   5.250 -0.0417  0.0288  0.1638
    1DIPC   C4B11424   0.073   1.370   4.866  0.1667  0.1173  0.1199
    1DIPC   NC311425  22.844  12.721   6.262  0.2648  0.1022  0.1517
    1DIPC   PO411426  23.097  12.375   6.221 -0.1020  0.2984 -0.2743
    1DIPC   GL111427  23.042  12.349   5.844 -0.1231  0.0387  0.0581
    1DIPC   GL211428  22.902  12.013   5.656  0.3444 -0.1019 -0.0780
    1DIPC   C1A11429  22.835  12.461   5.473 -0.1252  0.1177  0.1824
    1DIPC   D2A11430  22.540  12.822   5.196 -0.0606 -0.1502 -0.1011
    1DIPC   D3A11431  22.629  12.743   4.763  0.1917 -0.0177  0.1275
    1DIPC   C4A11432  22.912  12.973   4.488 -0.3233  0.1917  0.0086
    1DIPC   C1B11433  22.873  12.016   5.224 -0.0414  0.1629 -0.0117
    1DIPC   D2B11434  22.709  12.323   4.958 -0.1972  0.1066  0.0122
    1DIPC   D3B11435  23.009  12.266   4.609  0.1639 -0.0095  0.2596
    1DIPC   C4B11436  23.165  11.854   4.774 -0.0180  0.0738 -0.0183
    1DIPC   NC311437  19.094   2.501   6.846  0.2159 -0.4186 -0.1803
    1DIPC   PO411438  18.713   2.786   6.963  0.1348 -0.4495 -0.2659
    1DIPC   GL111439  18.506   2.573   6.579 -0.1227  0.3108  0.1107
    1DIPC   GL211440  18.334   2.800   6.492 -0.1267  0.5534 -0.0948
    1DIPC   C1A11441  18.493   2.445   6.181  0.0450  0.0598 -0.1697
    1DIPC   D2A11442  18.231   2.334   5.863 -0.3171  0.1685 -0.0977
    1DIPC   D3A11443  18.410   2.609   5.645  0.1695  0.0045 -0.0699
    1DIPC   C4A11444  18.447   2.775   5.281 -0.0801  0.1839  0.1145
    1DIPC   C1B11445  18.563   3.023   6.170  0.0468 -0.0805  0.0655
    1DIPC   D2B11446  18.609   3.094   5.657 -0.0007  0.1891 -0.0667
    1DIPC   D3B11447  18.962   2.793   5.453  0.4531  0.0405  0.0310
    1DIPC   C4B11448  18.838   2.282   5.523  0.0237  0.0800  0.2668
    1DIPC   NC311449  29.557  15.717   5.803  0.0715 -0.0193 -0.3114
    1DIPC   PO411450  29.103  15.766   5.920 -0.0161 -0.2801  0.2098
    1DIPC   GL111451  29.208  15.949   5.529  0.0929 -0.0438  0.1308
    1DIPC   GL211452  29.485  15.821   5.298  0.1173  0.0401  0.1545
    1DIPC   C1A11453  29.070  15.928   5.093  0.0422  0.2111  0.0318
    1DIPC   D2A11454  29.043  15.973   4.600  0.0109 -0.2084  0.0054
    1DIPC   D3A11455  29.155  16.412   4.524 -0.1232  0.3247  0.0917
    1DIPC   C4A11456  29.519  16.448   4.262 -0.0859 -0.2020  0.0841
    1DIPC   C1B11457  29.658  15.422   5.173  0.0753  0.1945  0.1479
    1DIPC   D2B11458  29.916  15.001   5.173  0.3326 -0.2271  0.2559
    1DIPC   D3B11459  29.671  15.014   4.828  0.1731 -0.1254 -0.1842
    1DIPC   C4B11460  29.942  15.093   4.498  0.1289 -0.0686 -0.3756
    1DIPC   NC311461  26.671   7.819   6.037  0.1782 -0.0825  0.2025
    1DIPC   PO411462  26.958   7.462   6.005  0.1258 -0.0557  0.0455
    1DIPC   GL111463  27.111   7.707   5.651  0.0771 -0.0849 -0.0090
    1DIPC   GL211464  27.011   7.939   5.446  0.1991 -0.1556  0.1611
    1DIPC   C1A11465  27.394   7.601   5.232  0.2065 -0.1881  0.1231
    1DIPC   D2A11466  27.717   7.278   5.096  0.3311 -0.0867  0.0075
    1DIPC   D3A11467  27.842   7.159   4.650 -0.2535 -0.1409  0.0104
    1DIPC   C4A11468  28.170   7.235   4.448 -0.1755  0.1491 -0.1463
    1DIPC   C1B11469  27.106   8.011   5.038  0.0205 -0.0520 -0.1063
    1DIPC   D2B11470  27.015   8.123   4.630 -0.3130 -0.1719  0.4848
    1DIPC   D3B11471  27.180   7.883   4.394 -0.0183 -0.2195 -0.3146
    1DIPC   C4B11472  26.985   7.472   4.353 -0.3146 -0.0948 -0.0920
    1DIPC   NC311473  29.347  12.266   6.752 -0.2461 -0.1750 -0.1257
    1DIPC   PO411474  29.410  12.075   6.268  0.0173 -0.0875  0.2428
    1DIPC   GL111475  29.469  11.916   5.766 -0.0107 -0.2363 -0.1722
    1DIPC   GL211476  29.669  12.008   5.542 -0.1802 -0.0287 -0.5123
    1DIPC   C1A11477  29.487  11.510   5.719 -0.1658  0.0348 -0.2793
    1DIPC   D2A11478  29.493  11.131   5.638  0.1981 -0.0554 -0.0812
    1DIPC   D3A11479  29.606  11.286   5.258  0.1593 -0.0628 -0.0617
    1DIPC   C4A11480  29.699  11.667   5.218  0.3142  0.0942  0.0946
    1DIPC   C1B11481  29.533  12.142   5.183  0.2143  0.1274 -0.1485
    1DIPC   D2B11482  29.677  12.056   4.848  0.0701 -0.3086  0.0502
    1DIPC   D3B11483  29.905  12.046   4.507  0.1456 -0.0030  0.0182
    1DIPC   C4B11484  30.243  11.819   4.527  0.2286  0.0162 -0.0500
    1DIPC   NC311485  24.896  23.416   7.297 -0.4118 -0.0964  0.0588
    1DIPC   PO411486  24.851  23.584   6.888  0.2423 -0.1685 -0.0006
    1DIPC   GL111487  24.907  23.987   6.583  0.2630 -0.1234 -0.1697
    1DIPC   GL211488  24.774  23.809   6.393 -0.0464  0.0123 -0.1931
    1DIPC   C1A11489  24.991  24.265   6.274 -0.1355  0.0919 -0.1372
    1DIPC   D2A11490  25.132  24.543   5.950  0.0775  0.3367 -0.1914
    1DIPC   D3A11491  24.850  24.395   5.674  0.1238 -0.2043  0.3117
    1DIPC   C4A11492  25.013  24.468   5.256 -0.2948 -0.0559  0.0670
    1DIPC   C1B11493  25.157  23.761   6.080 -0.1497 -0.3115 -0.0021
    1DIPC   D2B11494  25.545  23.568   6.196 -0.0760  0.2218  0.1060
    1DIPC   D3B11495  25.273  23.291   5.969  0.1387  0.1236  0.2175
    1DIPC   C4B11496  25.186  23.450   5.667 -0.0513 -0.1422 -0.0352
    1DIPC   NC311497  21.067   6.270   6.566 -0.0461  0.3598  0.0750
    1DIPC   PO411498  20.874   5.850   6.542  0.2614 -0.3995 -0.2536
    1DIPC   GL111499  21.028   5.705   6.152 -0.1407 -0.1281 -0.3492
    1DIPC   GL211500  21.248   5.406   6.127 -0.0566 -0.1075  0.0099
    1DIPC   C1A11501  20.872   5.726   5.695 -0.1876 -0.0697  0.0585
    1DIPC   D2A11502  20.743   6.016   5.335 -0.0614 -0.0639 -0.1940
    1DIPC   D3A11503  20.968   5.703   5.118  0.0672  0.2929  0.0843
    1DIPC   C4A11504  20.982   5.321   4.898  0.0083 -0.3102 -0.0709
    1DIPC   C1B11505  21.390   5.664   5.770 -0.2544 -0.0360 -0.2039
    1DIPC   D2B11506  21.301   6.063   5.755  0.2164  0.0332  0.1232
    1DIPC   D3B11507  21.385   6.259   5.327 -0.0474 -0.0828 -0.0070
    1DIPC   C4B11508  21.641   6.535   5.242 -0.3347 -0.0920 -0.0518
    1DIPC   NC311509  27.039  14.700   5.625 -0.0040 -0.2308  0.0721
    1DIPC   PO411510  26.668  14.982   5.674 -0.0660  0.1385 -0.1206
    1DIPC   GL111511  26.495  14.704   5.454 -0.0284 -0.0300  0.2574
    1DIPC   GL211512  26.779  14.587   5.255  0.1480  0.0584 -0.1954
    1DIPC   C1A11513  26.251  14.650   5.088  0.1752  0.0957  0.0099
    1DIPC   D2A11514  26.246  14.762   4.653  0.1307  0.0755  0.1265
    1DIPC   D3A11515  26.107  15.138   4.356 -0.1508  0.1205 -0.2654
    1DIPC   C4A11516  26.042  15.432   4.145 -0.0093 -0.0714  0.1689
    1DIPC   C1B11517  26.774  14.654   4.850  0.1679  0.0597 -0.0343
    1DIPC   D2B11518  26.639  14.442   4.515 -0.1870  0.0145 -0.1988
    1DIPC   D3B11519  26.393  14.148   4.406  0.1275 -0.1758 -0.0335
    1DIPC   C4B11520  26.101  13.814   4.609 -0.1406  0.0466 -0.0045
    1DIPC   NC311521  16.884   0.073   7.076 -0.0171 -0.0893  0.1760
    1DIPC   PO411522  17.144  -0.184   6.990 -0.1682 -0.3058 -0.0806
    1DIPC   GL111523  16.999  -0.462   6.622  0.1667 -0.0021  0.2399
    1DIPC   GL211524  16.737  -0.491   6.429  0.0622  0.1369 -0.1273
    1DIPC   C1A11525  17.144  -0.510   6.212 -0.0796 -0.1769  0.2554
    1DIPC   D2A11526  17.155  -0.339   5.755  0.1146  0.2275 -0.2424
    1DIPC   D3A11527  16.933  -0.684   5.569 -0.0981  0.0008  0.0985
    1DIPC   C4A11528  16.809  -0.653   5.148 -0.2654  0.1979 -0.1980
    1DIPC   C1B11529  16.535  -0.759   6.145 -0.2930  0.1604 -0.2080
    1DIPC   D2B11530  16.189  -0.842   6.036 -0.0793  0.1002 -0.0434
    1DIPC   D3B11531  16.161  -1.051   6.435  0.1754  0.3537 -0.0849
    1DIPC   C4B11532  16.156  -1.546   6.405  0.0413  0.0075 -0.0352
    1DIPC   NC311533  14.699   2.404   7.118 -0.2853  0.3022  0.0548
    1DIPC   PO411534  14.297   2.638   7.074 -0.2149 -0.0683 -0.2613
    1DIPC   GL111535  14.057   2.504   6.773 -0.1201 -0.0740 -0.0301
    1DIPC   GL211536  14.079   2.103   6.632  0.2204  0.2299 -0.1397
    1DIPC   C1A11537  13.801   2.581   6.474 -0.1624  0.2885  0.0480
    1DIPC   D2A11538  13.718   2.421   6.004  0.3569 -0.2442  0.0597
    1DIPC   D3A11539  13.359   2.583   5.845  0.0643  0.2771  0.0456
    1DIPC   C4A11540  13.352   2.586   5.404  0.1927  0.1272 -0.0038
    1DIPC   C1B11541  14.203   2.352   6.265  0.2770  0.0699  0.2862
    1DIPC   D2B11542  14.402   2.331   5.914  0.2624  0.2485 -0.1658
    1DIPC   D3B11543  14.155   2.685   5.787  0.0644  0.1320 -0.1611
    1DIPC   C4B11544  13.809   2.940   6.088 -0.3730 -0.0870 -0.0429
    1DIPC   NC311545  26.082  16.764   6.143 -0.1136 -0.1744  0.1156
    1DIPC   PO411546  26.093  17.155   5.864  0.2491  0.1461 -0.5716
    1DIPC   GL111547  25.955  17.202   5.467  0.1821  0.3490 -0.1519
    1DIPC   GL211548  25.708  17.482   5.493  0.0506 -0.3403  0.0038
    1DIPC   C1A11549  25.772  17.243   5.074 -0.0395  0.3274  0.0042
    1DIPC   D2A11550  25.578  17.422   4.742 -0.1115  0.0622 -0.0235
    1DIPC   D3A11551  26.003  17.314   4.428 -0.0873 -0.0021  0.0228
    1DIPC   C4A11552  25.901  17.016   4.086  0.1044  0.1540 -0.0889
    1DIPC   C1B11553  25.745  17.778   5.103  0.3034 -0.1589 -0.1035
    1DIPC   D2B11554  25.975  17.991   4.755 -0.1482 -0.0291  0.2059
    1DIPC   D3B11555  25.813  18.366   4.533  0.0805  0.1201 -0.3188
    1DIPC   C4B11556  25.747  18.784   4.788 -0.0680 -0.0234 -0.0880
    1DIPC   NC311557  26.137   5.057   6.415 -0.0888 -0.3830 -0.1389
    1DIPC   PO411558  26.604   5.020   6.353  0.0718 -0.1718  0.1230
    1DIPC   GL111559  26.360   5.035   5.981 -0.0040  0.0276 -0.2045
    1DIPC   GL211560  26.000   5.238   5.956  0.0277 -0.2670 -0.1570
    1DIPC   C1A11561  26.319   5.014   5.623 -0.1430 -0.1893 -0.0176
    1DIPC   D2A11562  26.090   4.987   5.194 -0.3728  0.0714 -0.1017
    1DIPC   D3A11563  25.917   4.653   4.961  0.0958  0.0194  0.1900
    1DIPC   C4A11564  25.863   4.167   5.057  0.4497 -0.0169  0.2570
    1DIPC   C1B11565  25.943   5.362   5.516  0.1326 -0.1692 -0.0319
    1DIPC   D2B11566  26.300   5.493   5.159 -0.0270 -0.0648 -0.0926
    1DIPC   D3B11567  26.650   5.293   5.309 -0.1101  0.1870 -0.2269
    1DIPC   C4B11568  26.582   4.848   5.187  0.1945  0.2234  0.2319
    1DIPC   NC311569   2.279  23.620   5.357  0.0317  0.3285 -0.1968
    1DIPC   PO411570   1.894  23.704   5.345  0.3424 -0.2689 -0.1229
    1DIPC   GL111571   1.760  23.902   5.003 -0.1724 -0.0794 -0.0904
    1DIPC   GL211572   1.756  24.215   5.101  0.1227  0.2185 -0.1728
    1DIPC   C1A11573   1.850  24.017   4.585 -0.0336  0.1302 -0.0926
    1DIPC   D2A11574   1.996  24.277   4.288  0.1081 -0.0886  0.1972
    1DIPC   D3A11575   2.383  24.090   4.436  0.3066 -0.1245 -0.0170
    1DIPC   C4A11576   2.244  23.735   4.721  0.0064  0.3259 -0.4306
    1DIPC   C1B11577   1.446  24.539   4.936 -0.2345 -0.0756 -0.1316
    1DIPC   D2B11578   1.182  24.715   4.825  0.4600 -0.1706  0.0760
    1DIPC   D3B11579   0.845  24.776   5.111  0.0893  0.0040 -0.0956
    1DIPC   C4B11580   0.551  25.087   5.130 -0.0160  0.1821 -0.2086
    1DIPC   NC311581   2.449  21.684   5.973  0.2097  0.0547 -0.1041
    1DIPC   PO411582   2.526  21.193   6.063  0.1393 -0.4230 -0.0862
    1DIPC   GL111583   2.665  21.109   5.738 -0.0354 -0.0080  0.2382
    1DIPC   GL211584   2.523  20.778   5.611 -0.2113 -0.1426  0.0062
    1DIPC   C1A11585   2.968  21.315   5.409  0.0515 -0.1164 -0.1046
    1DIPC   D2A11586   2.975  21.285   5.050 -0.1848  0.1154  0.0654
    1DIPC   D3A11587   3.109  21.082   4.563 -0.0840 -0.3005 -0.1364
    1DIPC   C4A11588   2.768  20.980   4.246 -0.1417 -0.0632 -0.2187
    1DIPC   C1B11589   2.427  20.632   5.156 -0.1283 -0.1187 -0.1842
    1DIPC   D2B11590   2.121  20.833   4.770  0.2549 -0.1734 -0.1194
    1DIPC   D3B11591   2.144  20.922   4.345 -0.2861 -0.2916  0.0388
    1DIPC   C4B11592   2.016  20.564   4.177  0.1397  0.1450 -0.2515
    1DIPC   NC311593  19.572  26.605   7.271  0.4280 -0.0726  0.2872
    1DIPC   PO411594  19.491  26.853   6.899  0.0498  0.0604  0.0959
    1DIPC   GL111595  19.502  26.608   6.492  0.1709 -0.1547 -0.1302
    1DIPC   GL211596  19.431  26.893   6.321 -0.1732 -0.0031 -0.0611
    1DIPC   C1A11597  19.291  26.194   6.246  0.0638 -0.0561  0.1532
    1DIPC   D2A11598  19.568  25.977   5.959 -0.2141  0.2982  0.0378
    1DIPC   D3A11599  19.433  25.771   5.599 -0.0731 -0.0082  0.1205
    1DIPC   C4A11600  19.667  25.867   5.228 -0.3617  0.0502 -0.1451
    1DIPC   C1B11601  19.785  27.161   6.257  0.0468  0.1886 -0.0879
    1DIPC   D2B11602  20.270  27.271   6.416  0.1146 -0.2878 -0.1211
    1DIPC   D3B11603  20.585  27.273   6.055 -0.2826  0.0858 -0.1999
    1DIPC   C4B11604  20.660  27.627   5.712  0.0307 -0.0592 -0.0158
    1DIPC   NC311605  28.511   8.421   6.807  0.1606 -0.2365  0.1089
    1DIPC   PO411606  28.431   8.096   6.381 -0.0447 -0.4095 -0.2511
    1DIPC   GL111607  28.387   8.228   5.941 -0.1130 -0.2529  0.1453
    1DIPC   GL211608  28.577   8.403   5.887 -0.0407  0.0218 -0.1358
    1DIPC   C1A11609  28.528   8.164   5.403 -0.0438 -0.3370 -0.0414
    1DIPC   D2A11610  28.790   8.113   5.067  0.0657 -0.0183  0.0113
    1DIPC   D3A11611  29.000   7.693   4.910 -0.2746 -0.2583  0.0183
    1DIPC   C4A11612  29.149   7.462   4.668 -0.0050  0.0651 -0.1200
    1DIPC   C1B11613  28.732   7.872   5.776 -0.0717  0.1896  0.2122
    1DIPC   D2B11614  28.905   7.551   5.871  0.1055  0.0857  0.1027
    1DIPC   D3B11615  29.115   7.656   5.377  0.0925 -0.0758  0.1407
    1DIPC   C4B11616  29.458   7.502   5.063 -0.1597  0.0384 -0.1071
    1DIPC   NC311617   3.755   8.985   7.198 -0.1416 -0.1528 -0.0751
    1DIPC   PO411618   3.713   8.553   6.945 -0.1274 -0.2490  0.2787
    1DIPC   GL111619   3.738   8.468   6.521  0.0052  0.2278 -0.1770
    1DIPC   GL211620   3.725   8.721   6.387  0.0532 -0.1641 -0.2607
    1DIPC   C1A11621   3.725   8.130   6.336 -0.2095 -0.0124 -0.1512
    1DIPC   D2A11622   3.920   7.848   6.197  0.0205 -0.0424 -0.0638
    1DIPC   D3A11623   4.380   7.712   6.292 -0.1293  0.1577  0.3074
    1DIPC   C4A11624   4.652   8.031   6.359 -0.0936  0.2017  0.1351
    1DIPC   C1B11625   4.117   8.660   6.091  0.0031 -0.3264  0.3016
    1DIPC   D2B11626   4.160   8.556   5.669 -0.2673 -0.0717 -0.0039
    1DIPC   D3B11627   4.130   8.770   5.276 -0.0319  0.0887 -0.0556
    1DIPC   C4B11628   4.432   8.617   5.055  0.0927 -0.1381 -0.1054
    1DIPC   NC311629  22.998  10.442   6.420  0.0981  0.0187  0.1040
    1DIPC   PO411630  22.705  10.642   6.134 -0.1694 -0.0798  0.2114
    1DIPC   GL111631  22.653  10.727   5.728 -0.2660  0.0206  0.1052
    1DIPC   GL211632  22.531  10.409   5.720  0.1283 -0.0211  0.1062
    1DIPC   C1A11633  22.703  10.843   5.333  0.0312 -0.0474 -0.2245
    1DIPC   D2A11634  22.967  10.908   4.965 -0.0611  0.2279 -0.2218
    1DIPC   D3A11635  23.182  10.771   4.567  0.2684 -0.1133 -0.0015
    1DIPC   C4A11636  23.446  10.484   4.655 -0.1776  0.3216 -0.1203
    1DIPC   C1B11637  22.728  10.359   5.310 -0.1714  0.1893  0.0392
    1DIPC   D2B11638  22.666  10.494   4.920 -0.3263 -0.0643 -0.2384
    1DIPC   D3B11639  22.413  10.997   4.820 -0.2503 -0.1824  0.2222
    1DIPC   C4B11640  22.354  11.318   5.133 -0.2245 -0.2238 -0.0661
    1DIPC   NC311641  28.737  10.112   6.399  0.1251  0.1168 -0.0432
    1DIPC   PO411642  28.583   9.760   6.181  0.0794  0.2166 -0.0807
    1DIPC   GL111643  28.430   9.678   5.765  0.0311 -0.0812  0.1302
    1DIPC   GL211644  28.671   9.796   5.587  0.1369  0.0589 -0.0998
    1DIPC   C1A11645  28.598   9.305   5.558 -0.3180 -0.1844 -0.2704
    1DIPC   D2A11646  28.615   9.075   5.170  0.2020  0.2377 -0.0025
    1DIPC   D3A11647  28.509   8.840   4.839 -0.0119  0.0348  0.1678
    1DIPC   C4A11648  28.110   8.710   4.561 -0.2359  0.0102  0.1028
    1DIPC   C1B11649  29.006   9.837   5.179 -0.0372  0.0094 -0.3483
    1DIPC   D2B11650  28.857   9.776   4.735  0.1718  0.3166  0.4006
    1DIPC   D3B11651  28.387   9.885   4.589 -0.1492 -0.0620  0.3710
    1DIPC   C4B11652  28.077   9.844   4.225  0.0415 -0.1213 -0.0343
    1DIPC   NC311653  12.950  27.002   6.609  0.0216  0.1348 -0.0935
    1DIPC   PO411654  13.123  26.703   6.352 -0.2674 -0.1802 -0.1542
    1DIPC   GL111655  12.941  27.007   6.082  0.0269  0.0720  0.4848
    1DIPC   GL211656  12.583  27.057   6.021  0.0727  0.3649  0.2768
    1DIPC   C1A11657  13.037  27.187   5.667  0.3645  0.1638  0.4521
    1DIPC   D2A11658  13.055  27.384   5.273 -0.1892 -0.0854 -0.1680
    1DIPC   D3A11659  13.430  27.363   4.951 -0.1337  0.0162  0.1757
    1DIPC   C4A11660  13.361  27.691   4.708  0.3369  0.0375  0.0764
    1DIPC   C1B11661  12.540  26.954   5.597 -0.2170 -0.1405 -0.1896
    1DIPC   D2B11662  12.457  26.511   5.440  0.1995 -0.0997  0.1885
    1DIPC   D3B11663  12.756  26.540   5.080 -0.1176  0.3867 -0.0055
    1DIPC   C4B11664  13.145  26.358   4.907 -0.1884 -0.0347  0.0922
    1DIPC   NC311665  17.779  25.896   6.822  0.3515  0.0934 -0.1428
    1DIPC   PO411666  18.110  26.276   6.796  0.0055 -0.1523  0.1141
    1DIPC   GL111667  17.902  26.149   6.371 -0.0388  0.0990  0.2460
    1DIPC   GL211668  17.606  26.330   6.358 -0.0742  0.0320  0.3507
    1DIPC   C1A11669  17.740  25.991   5.974 -0.0089  0.1536 -0.1689
    1DIPC   D2A11670  17.800  25.854   5.596 -0.1108 -0.1216 -0.1511
    1DIPC   D3A11671  17.363  25.664   5.453  0.0652  0.1076  0.2962
    1DIPC   C4A11672  17.252  25.290   5.417  0.2223 -0.1512 -0.2406
    1DIPC   C1B11673  17.299  26.545   6.069  0.0185 -0.1681  0.1460
    1DIPC   D2B11674  17.474  26.938   5.832  0.0750  0.0244 -0.0212
    1DIPC   D3B11675  17.794  26.860   5.508 -0.3071 -0.5272 -0.0363
    1DIPC   C4B11676  17.776  26.606   5.204  0.0890 -0.1961 -0.1043
    1DIPC   NC311677  29.719  12.379   5.919  0.2328  0.2762 -0.0872
    1DIPC   PO411678  29.859  11.905   6.039  0.0293 -0.2155  0.0881
    1DIPC   GL111679  30.085  11.774   5.702 -0.0744  0.0786 -0.1178
    1DIPC   GL211680  29.955  11.480   5.703  0.0636 -0.1119 -0.3367
    1DIPC   C1A11681  30.160  11.735   5.334 -0.0173  0.0504  0.0289
    1DIPC   D2A11682  30.055  11.547   4.915  0.0792  0.0531  0.3615
    1DIPC   D3A11683  29.626  11.551   4.720  0.3966 -0.0517  0.3950
    1DIPC   C4A11684  29.518  11.758   4.428 -0.2082  0.0634  0.2123
    1DIPC   C1B11685  30.078  11.214   5.324 -0.3393 -0.0833  0.1179
    1DIPC   D2B11686  30.188  11.088   4.908  0.1576  0.1685 -0.1377
    1DIPC   D3B11687  29.810  10.841   4.997  0.1383  0.2713 -0.1368
    1DIPC   C4B11688  29.576  10.812   4.527 -0.0660 -0.2020 -0.0387
    1DIPC   NC311689  28.369   7.562   6.333 -0.1659  0.0539 -0.0104
    1DIPC   PO411690  27.980   7.721   6.121  0.1877 -0.0818 -0.2134
    1DIPC   GL111691  27.980   7.527   5.657 -0.1059  0.1000  0.0738
    1DIPC   GL211692  28.308   7.607   5.666 -0.1762  0.0445  0.0687
    1DIPC   C1A11693  28.178   7.204   5.360 -0.0489  0.1361 -0.3985
    1DIPC   D2A11694  28.194   6.989   4.958  0.2027  0.1974  0.0050
    1DIPC   D3A11695  28.493   6.881   4.598 -0.1864  0.1072  0.0790
    1DIPC   C4A11696  28.212   6.712   4.180 -0.0935 -0.2779 -0.3275
    1DIPC   C1B11697  28.439   7.623   5.274 -0.0947  0.1048  0.2903
    1DIPC   D2B11698  28.259   7.493   4.892 -0.0042 -0.2467  0.1560
    1DIPC   D3B11699  28.540   7.616   4.679 -0.1552  0.3642  0.1430
    1DIPC   C4B11700  28.568   7.874   4.326  0.0950  0.0081  0.2014
    1DIPC   NC311701  19.810  29.305   6.880 -0.1542  0.0839 -0.0897
    1DIPC   PO411702  19.692  29.781   6.892  0.3672  0.2591  0.2992
    1DIPC   GL111703  19.484  29.621   6.453 -0.0620 -0.1608 -0.0750
    1DIPC   GL211704  19.520  29.629   6.075 -0.1143  0.1813  0.1208
    1DIPC   C1A11705  19.440  29.221   6.330 -0.4199 -0.2870 -0.1051
    1DIPC   D2A11706  19.693  28.888   6.119  0.0190  0.1347 -0.2110
    1DIPC   D3A11707  19.481  29.168   5.779 -0.2192  0.2535  0.0641
    1DIPC   C4A11708  19.271  28.925   5.417  0.0555  0.0043 -0.2034
    1DIPC   C1B11709  19.761  29.541   5.695 -0.0841 -0.0242  0.3763
    1DIPC   D2B11710  19.591  29.421   5.324 -0.1846 -0.1556 -0.1475
    1DIPC   D3B11711  19.486  29.771   5.131  0.2702 -0.0427 -0.0056
    1DIPC   C4B11712  19.152  29.654   4.910 -0.1682 -0.0305 -0.0797
    1DIPC   NC311713  16.918  28.122   6.791 -0.0761 -0.0717  0.1098
    1DIPC   PO411714  17.405  28.086   6.975 -0.1565  0.3497 -0.0852
    1DIPC   GL111715  17.460  28.309   6.630  0.4167  0.1835 -0.4294
    1DIPC   GL211716  17.208  28.556   6.528 -0.0320  0.3032  0.4656
    1DIPC   C1A11717  17.460  28.328   6.209 -0.1986 -0.2878 -0.1855
    1DIPC   D2A11718  17.397  28.329   5.768  0.4527  0.0553  0.3197
    1DIPC   D3A11719  17.786  28.122   5.683 -0.4616 -0.1518  0.1024
    1DIPC   C4A11720  17.848  27.857   6.121 -0.1720  0.1839  0.2237
    1DIPC   C1B11721  17.152  28.715   6.051  0.3049  0.0957 -0.0267
    1DIPC   D2B11722  17.363  28.925   5.700 -0.4421 -0.0449  0.1303
    1DIPC   D3B11723  17.298  28.956   5.249  0.0278 -0.3035  0.1280
    1DIPC   C4B11724  17.258  29.400   5.173  0.0314  0.0119  0.2477
    1DIPC   NC311725  25.303  17.995   6.390  0.0843 -0.1672  0.1516
    1DIPC   PO411726  25.636  17.966   6.175  0.2367 -0.1046 -0.0060
    1DIPC   GL111727  25.473  17.846   5.764  0.0818 -0.2096  0.1425
    1DIPC   GL211728  25.160  17.954   5.885  0.1421 -0.1465 -0.1247
    1DIPC   C1A11729  25.439  18.026   5.405 -0.0926 -0.0639  0.0880
    1DIPC   D2A11730  25.158  18.280   5.141  0.0606 -0.1479  0.0085
    1DIPC   D3A11731  24.805  18.406   4.871 -0.2348 -0.1163 -0.1462
    1DIPC   C4A11732  24.760  18.729   4.601  0.0483  0.0525 -0.1021
    1DIPC   C1B11733  25.051  18.361   5.703 -0.0651  0.1033 -0.4331
    1DIPC   D2B11734  24.957  18.702   5.453  0.1704  0.2401 -0.0916
    1DIPC   D3B11735  24.548  18.810   5.209 -0.1095  0.2755 -0.0706
    1DIPC   C4B11736  24.306  19.111   5.285 -0.1500 -0.1257 -0.0337
    1DIPC   NC311737  16.576   1.720   6.901  0.4097 -0.0293 -0.0472
    1DIPC   PO411738  16.733   1.410   7.046  0.1143 -0.1693 -0.1978
    1DIPC   GL111739  16.740   1.429   6.536 -0.0375  0.0845 -0.1057
    1DIPC   GL211740  16.489   1.529   6.403  0.4008  0.1530  0.0081
    1DIPC   C1A11741  16.840   1.350   6.114 -0.2002 -0.3790 -0.0707
    1DIPC   D2A11742  17.288   1.416   5.919  0.0473 -0.1454 -0.0355
    1DIPC   D3A11743  17.347   1.207   5.571  0.1364  0.3308 -0.1607
    1DIPC   C4A11744  17.102   1.284   5.251  0.2014 -0.2719 -0.0559
    1DIPC   C1B11745  16.334   1.602   6.007 -0.0972  0.1533 -0.1373
    1DIPC   D2B11746  16.093   1.790   5.601  0.3002 -0.0266  0.3456
    1DIPC   D3B11747  15.822   2.084   5.779 -0.0145  0.0087  0.0381
    1DIPC   C4B11748  15.483   2.234   5.512  0.0176  0.0840  0.1508
    1DIPC   NC311749  28.159  26.334   6.407 -0.2132 -0.0623 -0.1061
    1DIPC   PO411750  28.420  26.258   6.097  0.5562 -0.0057 -0.0110
    1DIPC   GL111751  27.970  26.343   5.950 -0.3198  0.2452  0.1875
    1DIPC   GL211752  27.988  26.553   5.662 -0.0735  0.0095 -0.1501
    1DIPC   C1A11753  27.611  26.094   5.719  0.0219  0.0135  0.0282
    1DIPC   D2A11754  27.236  26.056   5.448 -0.0365  0.2105 -0.0124
    1DIPC   D3A11755  26.818  25.847   5.525 -0.3432 -0.0785  0.0129
    1DIPC   C4A11756  26.453  25.883   5.251 -0.2721  0.3440  0.0144
    1DIPC   C1B11757  27.808  26.849   5.421 -0.1665  0.1636  0.2951
    1DIPC   D2B11758  27.796  26.686   4.976 -0.0618 -0.0586 -0.1502
    1DIPC   D3B11759  27.927  27.142   5.022  0.1705 -0.0187  0.0697
    1DIPC   C4B11760  28.303  27.364   4.758 -0.3143 -0.0185 -0.0528
    1DIPC   NC311761   8.404   7.738   7.003 -0.1150  0.3159  0.2003
    1DIPC   PO411762   8.516   7.324   6.763  0.0015 -0.0053  0.1444
    1DIPC   GL111763   8.825   7.266   6.410  0.1097  0.0957  0.0722
    1DIPC   GL211764   8.588   7.087   6.210  0.2921  0.2493  0.1959
    1DIPC   C1A11765   8.953   7.406   5.981  0.1151  0.2091  0.0705
    1DIPC   D2A11766   8.817   7.490   5.515  0.1617  0.0213  0.0151
    1DIPC   D3A11767   9.066   7.537   5.260 -0.0094 -0.0106 -0.1564
    1DIPC   C4A11768   9.266   7.886   5.152 -0.1002 -0.1283 -0.1952
    1DIPC   C1B11769   8.531   6.799   5.843  0.0684 -0.0634  0.2495
    1DIPC   D2B11770   8.394   6.567   5.550  0.0192  0.2279 -0.1120
    1DIPC   D3B11771   8.778   6.435   5.660 -0.2444  0.1280 -0.1422
    1DIPC   C4B11772   8.912   5.942   5.643 -0.0049  0.1167 -0.3591
    1DIPC   NC311773  24.421  21.716   6.653  0.1127  0.0467  0.1064
    1DIPC   PO411774  24.651  21.435   6.504  0.4989  0.1060  0.2850
    1DIPC   GL111775  24.465  21.536   6.065  0.1895 -0.2228 -0.0935
    1DIPC   GL211776  24.376  21.848   6.098 -0.1371 -0.0818  0.0486
    1DIPC   C1A11777  24.418  21.601   5.625  0.0551 -0.1567  0.2067
    1DIPC   D2A11778  24.436  21.434   5.065 -0.0340  0.0193 -0.1513
    1DIPC   D3A11779  24.203  21.331   4.712 -0.1122  0.1280 -0.2529
    1DIPC   C4A11780  23.852  21.580   4.612  0.0957 -0.5732 -0.0655
    1DIPC   C1B11781  24.087  22.049   6.052  0.0536  0.1754  0.0929
    1DIPC   D2B11782  23.895  22.484   6.113  0.0832  0.0642 -0.3265
    1DIPC   D3B11783  23.738  22.780   5.902 -0.1978 -0.0277  0.0221
    1DIPC   C4B11784  23.723  22.621   5.509 -0.0435  0.3205 -0.1290
    1DIPC   NC311785   2.424  24.964   5.555 -0.0849 -0.0646  0.0308
    1DIPC   PO411786   2.288  25.364   5.743 -0.0358 -0.0164 -0.1062
    1DIPC   GL111787   2.259  25.464   5.326  0.0119 -0.3014  0.4013
    1DIPC   GL211788   1.928  25.549   5.142 -0.1399  0.1250  0.1094
    1DIPC   C1A11789   2.378  25.747   5.105 -0.2052 -0.0261 -0.1014
    1DIPC   D2A11790   2.496  25.978   4.763  0.0765 -0.2918  0.1306
    1DIPC   D3A11791   2.211  25.788   4.534  0.0237 -0.1991  0.3777
    1DIPC   C4A11792   2.288  25.775   4.057  0.0627  0.1277  0.1883
    1DIPC   C1B11793   2.174  25.329   4.829  0.1759  0.0657 -0.1445
    1DIPC   D2B11794   2.601  25.290   4.998 -0.0632  0.3622 -0.0069
    1DIPC   D3B11795   2.832  25.577   4.681  0.2717  0.0669  0.0224
    1DIPC   C4B11796   2.721  25.828   4.299 -0.0660  0.0738 -0.0113
    1DIPC   NC311797   1.695  19.778   5.770 -0.1001 -0.1359  0.2986
    1DIPC   PO411798   2.122  19.535   5.854  0.0167  0.0646 -0.2419
    1DIPC   GL111799   2.207  19.393   5.378  0.2578 -0.0804 -0.0289
    1DIPC   GL211800   1.838  19.364   5.372 -0.1056 -0.3571  0.1628
    1DIPC   C1A11801   2.168  19.543   4.910 -0.1165 -0.0455 -0.1195
    1DIPC   D2A11802   2.093  19.690   4.546 -0.3106 -0.1017 -0.1439
    1DIPC   D3A11803   2.275  19.988   4.317 -0.2380 -0.2415 -0.1802
    1DIPC   C4A11804   2.231  20.186   3.930  0.0065 -0.0939  0.0599
    1DIPC   C1B11805   1.626  19.397   4.904 -0.0057  0.2421 -0.4498
    1DIPC   D2B11806   1.515  19.436   4.421 -0.1696  0.0100  0.1989
    1DIPC   D3B11807   1.313  19.120   4.399  0.1691  0.1360  0.1506
    1DIPC   C4B11808   1.275  18.923   4.782  0.0912  0.0367  0.1922
    1DIPC   NC311809  29.813   3.903   7.102 -0.0245  0.0127 -0.3040
    1DIPC   PO411810  29.531   3.797   6.819  0.3145  0.0416 -0.3869
    1DIPC   GL111811  29.258   3.623   6.500 -0.0589  0.1020  0.1437
    1DIPC   GL211812  29.420   3.427   6.216 -0.0776  0.1236  0.1632
    1DIPC   C1A11813  28.939   3.697   6.226 -0.1078 -0.0293  0.1388
    1DIPC   D2A11814  28.577   4.024   6.106  0.0694  0.4731 -0.3480
    1DIPC   D3A11815  28.357   3.891   5.698 -0.1901 -0.0611  0.1750
    1DIPC   C4A11816  28.398   3.909   5.302 -0.2731 -0.0637  0.0122
    1DIPC   C1B11817  29.286   3.424   5.707 -0.0613 -0.0120 -0.0517
    1DIPC   D2B11818  29.407   3.677   5.336  0.0531  0.1923 -0.0442
    1DIPC   D3B11819  29.819   3.635   5.196 -0.0866  0.1750  0.1316
    1DIPC   C4B11820  30.139   4.025   5.091  0.0625  0.0810 -0.3603
    1DIPC   NC311821  27.818  19.549   6.399 -0.0956 -0.0695 -0.0008
    1DIPC   PO411822  28.284  19.354   6.419 -0.0324 -0.4420 -0.0430
    1DIPC   GL111823  28.307  19.444   5.973 -0.0984 -0.1082 -0.2391
    1DIPC   GL211824  28.051  19.547   5.892  0.0453 -0.1288  0.0182
    1DIPC   C1A11825  28.447  19.364   5.647  0.2959 -0.0323  0.1821
    1DIPC   D2A11826  28.331  19.071   5.306 -0.0731  0.2239 -0.4247
    1DIPC   D3A11827  28.384  19.510   5.174 -0.0150  0.2555  0.2952
    1DIPC   C4A11828  28.727  19.533   4.918 -0.1485 -0.0137  0.0908
    1DIPC   C1B11829  27.958  19.503   5.438 -0.1587  0.3854  0.3679
    1DIPC   D2B11830  27.931  19.318   5.041  0.0597  0.3107 -0.0031
    1DIPC   D3B11831  28.193  19.690   4.806  0.2542  0.2387 -0.2940
    1DIPC   C4B11832  27.985  20.135   4.737  0.0322  0.2693 -0.0150
    1DIPC   NC311833  26.977  28.504   6.150  0.1243 -0.1149  0.2720
    1DIPC   PO411834  26.682  28.696   6.415 -0.0906 -0.0626  0.1149
    1DIPC   GL111835  26.371  28.854   6.244 -0.0308  0.1580 -0.1012
    1DIPC   GL211836  26.369  28.585   5.934 -0.1979 -0.1980 -0.1038
    1DIPC   C1A11837  26.098  29.041   5.844 -0.0799 -0.5315 -0.1966
    1DIPC   D2A11838  26.040  29.210   5.416 -0.0019  0.2188  0.1341
    1DIPC   D3A11839  25.590  29.240   5.512 -0.2521  0.1148 -0.0404
    1DIPC   C4A11840  25.358  29.491   5.836 -0.3149 -0.0792 -0.1987
    1DIPC   C1B11841  26.358  28.299   5.574  0.2298 -0.1192 -0.1029
    1DIPC   D2B11842  26.566  27.942   5.479  0.1752 -0.2447  0.0433
    1DIPC   D3B11843  26.695  28.135   5.115 -0.2447 -0.0780  0.0334
    1DIPC   C4B11844  26.966  28.012   4.801 -0.0821 -0.1023 -0.2727
    1DIPC   NC311845  14.891   5.634   6.975 -0.2905 -0.1223  0.1603
    1DIPC   PO411846  14.815   5.431   6.580  0.2813 -0.0148  0.1369
    1DIPC   GL111847  14.436   5.515   6.380  0.0481 -0.1208 -0.0394
    1DIPC   GL211848  14.590   5.401   6.020  0.0162 -0.1122  0.0299
    1DIPC   C1A11849  14.020   5.584   6.513  0.0600  0.0232  0.0422
    1DIPC   D2A11850  13.658   5.560   6.303  0.1500  0.2072  0.1463
    1DIPC   D3A11851  13.440   5.810   6.032  0.0695 -0.1614 -0.1728
    1DIPC   C4A11852  13.654   6.108   5.834 -0.2868 -0.0235  0.3270
    1DIPC   C1B11853  14.683   5.365   5.548 -0.0599  0.5232  0.0261
    1DIPC   D2B11854  14.951   5.533   5.224  0.2402 -0.1264 -0.0623
    1DIPC   D3B11855  15.263   5.322   5.044  0.0186  0.1793 -0.0801
    1DIPC   C4B11856  15.381   4.959   5.220 -0.0579  0.3026  0.0460
    1DIPC   NC311857   3.302  18.915   6.092 -0.1470 -0.1496  0.0906
    1DIPC   PO411858   3.184  18.508   5.922 -0.2239 -0.0195 -0.1628
    1DIPC   GL111859   3.082  18.409   5.567  0.0393  0.1960  0.0501
    1DIPC   GL211860   2.889  18.599   5.549 -0.2138  0.1320 -0.1097
    1DIPC   C1A11861   2.850  18.074   5.321 -0.1258  0.0986 -0.0860
    1DIPC   D2A11862   2.825  17.716   5.126  0.1377 -0.1885  0.0732
    1DIPC   D3A11863   2.660  17.674   4.662 -0.1798 -0.0065  0.3928
    1DIPC   C4A11864   2.567  17.301   4.407 -0.0595  0.2444 -0.1798
    1DIPC   C1B11865   2.884  18.860   5.180  0.2059 -0.0426  0.3097
    1DIPC   D2B11866   3.168  19.074   4.897 -0.1641 -0.4146  0.1861
    1DIPC   D3B11867   3.085  19.195   4.486 -0.1636  0.3883  0.0602
    1DIPC   C4B11868   3.013  18.864   4.199  0.1297  0.0521  0.0790
    1DIPC   NC311869  29.446   0.358   6.523  0.1577  0.1955  0.2910
    1DIPC   PO411870  29.811   0.248   6.212  0.0442  0.0300  0.1291
    1DIPC   GL111871  29.928   0.487   5.815  0.1941  0.1294 -0.0059
    1DIPC   GL211872  30.286   0.479   5.749  0.0130  0.0714 -0.2944
    1DIPC   C1A11873  29.907   0.666   5.456  0.1167 -0.0259 -0.2088
    1DIPC   D2A11874  29.897   0.625   4.911  0.1822  0.2866  0.1977
    1DIPC   D3A11875  29.699   0.417   4.651 -0.2618 -0.1055  0.1462
    1DIPC   C4A11876  29.446  -0.035   4.648  0.3405  0.0591 -0.1831
    1DIPC   C1B11877  30.501   0.632   5.387  0.0513 -0.0949 -0.2996
    1DIPC   D2B11878  30.766   0.526   5.073  0.0846 -0.1656 -0.1191
    1DIPC   D3B11879  30.869   0.170   5.135 -0.0186 -0.0102  0.1819
    1DIPC   C4B11880  30.540  -0.169   4.898 -0.0017 -0.0809 -0.0826
    1DIPC   NC311881  28.679   1.588   6.986 -0.1329  0.2267 -0.2061
    1DIPC   PO411882  28.721   1.662   6.546 -0.0285  0.2190 -0.0077
    1DIPC   GL111883  28.819   1.560   6.099 -0.0803  0.0432 -0.2446
    1DIPC   GL211884  29.118   1.550   5.863 -0.2576  0.2279 -0.0281
    1DIPC   C1A11885  28.561   1.667   5.697  0.0693 -0.1421 -0.0709
    1DIPC   D2A11886  28.282   1.642   5.401 -0.0443 -0.2074  0.2259
    1DIPC   D3A11887  28.172   1.946   5.122 -0.2400 -0.2814  0.1331
    1DIPC   C4A11888  28.424   2.143   4.841  0.6122  0.0375 -0.2115
    1DIPC   C1B11889  28.977   1.490   5.337  0.0321  0.0748 -0.0585
    1DIPC   D2B11890  28.674   1.527   5.008  0.2315 -0.0384 -0.3919
    1DIPC   D3B11891  28.181   1.434   4.980  0.1691  0.0055 -0.2683
    1DIPC   C4B11892  28.167   1.083   4.886  0.0151 -0.2180 -0.1273
    1DIPC   NC311893  29.207  26.856   6.665 -0.0723 -0.0346  0.2348
    1DIPC   PO411894  29.231  27.246   6.658 -0.1020  0.0935  0.1603
    1DIPC   GL111895  29.391  27.417   6.294  0.0553 -0.1873 -0.0713
    1DIPC   GL211896  29.681  27.376   6.059 -0.1780 -0.0660 -0.0519
    1DIPC   C1A11897  29.330  27.646   5.936  0.1418 -0.0938  0.4909
    1DIPC   D2A11898  29.227  27.976   5.507 -0.0667  0.0504  0.2170
    1DIPC   D3A11899  29.352  28.321   5.324  0.0260 -0.2687  0.1764
    1DIPC   C4A11900  29.374  28.277   4.876 -0.0113 -0.1773  0.0655
    1DIPC   C1B11901  30.051  27.351   5.788 -0.2573 -0.2528  0.0212
    1DIPC   D2B11902  30.159  27.133   5.356  0.2619  0.3049 -0.0347
    1DIPC   D3B11903  29.824  27.365   5.186  0.0123 -0.0282 -0.1897
    1DIPC   C4B11904  29.350  27.485   5.286  0.0378 -0.2640  0.0786
    1DIPC   NC311905   7.750   7.159   7.331  0.1775  0.0739  0.0407
    1DIPC   PO411906   7.441   7.527   7.169 -0.0182 -0.2571 -0.1210
    1DIPC   GL111907   7.513   7.495   6.787 -0.0453 -0.0962 -0.0655
    1DIPC   GL211908   7.227   7.562   6.451 -0.1740 -0.1817  0.0520
    1DIPC   C1A11909   7.676   7.383   6.477  0.0208  0.1994  0.0909
    1DIPC   D2A11910   7.598   7.491   6.071  0.0779  0.2599 -0.0730
    1DIPC   D3A11911   7.908   7.457   5.734  0.1874  0.1122 -0.0404
    1DIPC   C4A11912   7.693   7.361   5.346  0.2409  0.3260  0.2112
    1DIPC   C1B11913   7.106   7.650   6.023 -0.2665  0.0140  0.1969
    1DIPC   D2B11914   7.191   7.781   5.586  0.0605  0.1929 -0.2772
    1DIPC   D3B11915   7.639   7.952   5.644 -0.2079 -0.0346 -0.1361
    1DIPC   C4B11916   7.798   8.277   5.422  0.0419  0.2356 -0.1350
    1DIPC   NC311917   2.523   2.437   6.772 -0.1160  0.1998 -0.1904
    1DIPC   PO411918   2.819   2.719   6.534  0.0766 -0.0545  0.2191
    1DIPC   GL111919   3.031   2.505   6.199 -0.1662  0.3034  0.0857
    1DIPC   GL211920   3.326   2.363   6.317  0.3052 -0.0470  0.3103
    1DIPC   C1A11921   3.421   2.646   5.917 -0.0308  0.2978 -0.1490
    1DIPC   D2A11922   3.823   2.890   5.759  0.2199  0.0784  0.1551
    1DIPC   D3A11923   4.004   3.112   5.488  0.0443  0.0658  0.1447
    1DIPC   C4A11924   4.361   3.039   5.828 -0.0694 -0.0898  0.0083
    1DIPC   C1B11925   3.422   2.124   5.974  0.1156 -0.2986 -0.1083
    1DIPC   D2B11926   3.436   1.776   5.664  0.1066 -0.2560 -0.1193
    1DIPC   D3B11927   3.720   1.998   5.538 -0.3289 -0.0404  0.0338
    1DIPC   C4B11928   3.703   2.448   5.637 -0.4090 -0.1098  0.2261
    1DIPC   NC311929   0.113   7.565   6.242 -0.0822  0.0591  0.0480
    1DIPC   PO411930   0.108   7.086   6.341  0.1563  0.2119 -0.2663
    1DIPC   GL111931   0.004   7.118   5.960  0.0585  0.2585 -0.2077
    1DIPC   GL211932   0.261   7.265   5.784  0.1420  0.0434 -0.0984
    1DIPC   C1A11933  -0.110   7.083   5.468  0.0735 -0.1308 -0.1720
    1DIPC   D2A11934  -0.303   6.778   5.107  0.1085  0.2865 -0.0636
    1DIPC   D3A11935  -0.029   6.799   4.757 -0.4748  0.1366 -0.0546
    1DIPC   C4A11936   0.158   7.000   4.359  0.0197 -0.2861 -0.0599
    1DIPC   C1B11937   0.443   7.114   5.419  0.0786 -0.0622 -0.1798
    1DIPC   D2B11938   0.137   7.179   5.030 -0.1078  0.1065 -0.0536
    1DIPC   D3B11939   0.439   7.175   4.760 -0.4171 -0.0869 -0.3505
    1DIPC   C4B11940   0.877   7.139   4.529  0.1309 -0.1601  0.0798
    1DIPC   NC311941  17.451   0.682   6.939 -0.1479 -0.0266 -0.1579
    1DIPC   PO411942  17.267   0.838   6.495 -0.3318  0.1732 -0.0633
    1DIPC   GL111943  17.235   0.884   6.072 -0.1037  0.0776 -0.2554
    1DIPC   GL211944  17.313   0.525   6.003  0.2476 -0.1901 -0.1774
    1DIPC   C1A11945  17.060   0.843   5.657 -0.3369  0.1901  0.1055
    1DIPC   D2A11946  17.020   0.497   5.387  0.1513 -0.3479 -0.1207
    1DIPC   D3A11947  17.395   0.462   5.039  0.0771  0.2999  0.0570
    1DIPC   C4A11948  17.224   0.372   4.634  0.0348 -0.1313  0.0978
    1DIPC   C1B11949  17.098   0.151   5.763 -0.0176 -0.0243  0.2097
    1DIPC   D2B11950  17.328   0.009   5.329 -0.2111 -0.0018 -0.2223
    1DIPC   D3B11951  17.067  -0.001   4.976 -0.2136  0.1098 -0.1875
    1DIPC   C4B11952  16.780   0.388   4.864 -0.2632 -0.0805  0.2295
    1DIPC   NC311953   0.057   4.856   6.730 -0.1153 -0.0925 -0.0341
    1DIPC   PO411954  -0.126   5.312   6.753 -0.2474 -0.0944  0.1724
    1DIPC   GL111955   0.072   5.199   6.390 -0.0206 -0.0546  0.1610
    1DIPC   GL211956  -0.152   5.039   6.150 -0.2265  0.0923  0.0654
    1DIPC   C1A11957   0.030   5.463   6.008  0.4113  0.0026  0.0807
    1DIPC   D2A11958   0.343   5.728   6.097  0.0643 -0.1120 -0.0859
    1DIPC   D3A11959   0.573   5.429   5.835  0.1658  0.0738  0.2128
    1DIPC   C4A11960   0.638   5.552   5.465 -0.0066  0.1806 -0.1376
    1DIPC   C1B11961  -0.339   4.991   5.737  0.0131  0.0110 -0.1087
    1DIPC   D2B11962  -0.457   5.132   5.389  0.0569 -0.1986 -0.1872
    1DIPC   D3B11963  -0.708   4.760   5.340 -0.0944  0.0505 -0.2758
    1DIPC   C4B11964  -0.594   4.484   4.961 -0.0041 -0.0097  0.0071
    1DIPC   NC311965  20.843   4.809   6.788 -0.3442 -0.0005  0.2741
    1DIPC   PO411966  20.624   4.453   6.697  0.4008  0.1983  0.0736
    1DIPC   GL111967  20.507   4.572   6.352  0.1539  0.4150 -0.1175
    1DIPC   GL211968  20.628   4.809   6.311 -0.0318  0.0368  0.0084
    1DIPC   C1A11969  20.416   4.333   5.981 -0.0109  0.5043 -0.2150
    1DIPC   D2A11970  20.225   3.968   5.954 -0.1516  0.5386  0.2432
    1DIPC   D3A11971  20.225   4.158   5.552 -0.0102 -0.2529 -0.1203
    1DIPC   C4A11972  20.348   4.551   5.320 -0.1902 -0.1187 -0.2297
    1DIPC   C1B11973  20.779   5.114   6.040  0.1881  0.2582 -0.3276
    1DIPC   D2B11974  20.464   5.322   5.825 -0.2199  0.3316 -0.0431
    1DIPC   D3B11975  20.742   5.378   5.426 -0.2812 -0.2270 -0.2888
    1DIPC   C4B11976  21.169   5.338   5.347  0.2499  0.0542  0.0475
    1DIPC   NC311977  23.820  19.320   6.729 -0.2895 -0.1188  0.0502
    1DIPC   PO411978  24.196  19.060   6.743 -0.3518 -0.1614 -0.1532
    1DIPC   GL111979  24.141  19.174   6.334  0.1119 -0.1275 -0.0512
    1DIPC   GL211980  23.944  18.854   6.179 -0.0318 -0.2529 -0.4153
    1DIPC   C1A11981  24.001  19.287   5.884 -0.0134 -0.1288  0.0222
    1DIPC   D2A11982  23.834  19.257   5.476 -0.2534  0.0504  0.3650
    1DIPC   D3A11983  23.601  19.341   5.236  0.0157 -0.1018 -0.1427
    1DIPC   C4A11984  23.704  19.740   4.935 -0.5030 -0.2058  0.1991
    1DIPC   C1B11985  24.010  18.722   5.843 -0.0713  0.2406 -0.2046
    1DIPC   D2B11986  24.089  18.658   5.496  0.0434  0.4054 -0.0519
    1DIPC   D3B11987  23.985  18.377   5.219  0.1251  0.2829  0.1245
    1DIPC   C4B11988  24.403  18.129   5.043 -0.0399  0.0218 -0.1732
    1DIPC   NC311989  14.064  24.349   6.806  0.1453  0.2549  0.2287
    1DIPC   PO411990  13.924  24.172   6.446 -0.2883 -0.4105 -0.3838
    1DIPC   GL111991  13.772  24.111   6.044  0.1027  0.1673 -0.1758
    1DIPC   GL211992  13.727  23.929   5.751 -0.2267  0.0702 -0.0922
    1DIPC   C1A11993  13.809  24.398   5.684  0.2558  0.1573  0.2276
    1DIPC   D2A11994  14.017  24.497   5.233 -0.1647  0.0375 -0.0281
    1DIPC   D3A11995  13.665  24.198   5.224  0.0872 -0.2734 -0.1950
    1DIPC   C4A11996  13.852  23.855   5.236  0.1300 -0.1475  0.2124
    1DIPC   C1B11997  13.444  23.627   5.535 -0.0098  0.1554 -0.0106
    1DIPC   D2B11998  13.454  23.457   5.175 -0.0512 -0.0556  0.2837
    1DIPC   D3B11999  13.354  23.787   4.801 -0.0568  0.1547 -0.2667
    1DIPC   C4B12000  13.608  24.167   4.719 -0.0993 -0.0609 -0.0668
    1DIPC   NC312001  24.407   0.252   6.831 -0.1883  0.0971 -0.0246
    1DIPC   PO412002  24.798   0.501   6.942 -0.3443  0.0270 -0.4331
    1DIPC   GL112003  24.639   0.567   6.479 -0.2632 -0.0009  0.0061
    1DIPC   GL212004  24.429   0.477   6.286  0.0122  0.1932 -0.0264
    1DIPC   C1A12005  24.543   0.952   6.262 -0.0661  0.0518 -0.2335
    1DIPC   D2A12006  24.752   1.164   5.947  0.2451  0.0267 -0.1522
    1DIPC   D3A12007  25.069   1.227   5.664 -0.1328 -0.0244  0.4105
    1DIPC   C4A12008  25.075   1.077   5.259 -0.2155  0.0126 -0.0424
    1DIPC   C1B12009  24.687   0.547   5.979  0.0450 -0.1440  0.0394
    1DIPC   D2B12010  24.571   0.850   5.550  0.0810  0.3405 -0.1004
    1DIPC   D3B12011  24.918   0.512   5.352 -0.2161  0.0263 -0.0244
    1DIPC   C4B12012  25.071   0.622   4.910  0.2920 -0.2529 -0.1388
    1DIPC   NC312013   5.978  28.261   6.725  0.2532 -0.0963  0.0698
    1DIPC   PO412014   6.393  28.495   6.715 -0.2892 -0.0181 -0.0552
    1DIPC   GL112015   6.306  28.552   6.328  0.2832 -0.2300 -0.2006
    1DIPC   GL212016   6.061  28.389   6.216  0.2476  0.1019 -0.0018
    1DIPC   C1A12017   6.598  28.300   6.021 -0.4435 -0.0317 -0.0264
    1DIPC   D2A12018   6.736  28.097   5.674  0.0401  0.1174  0.0531
    1DIPC   D3A12019   6.579  27.777   5.469 -0.2386 -0.0849 -0.2582
    1DIPC   C4A12020   6.231  27.579   5.345  0.1436 -0.0717  0.0524
    1DIPC   C1B12021   5.974  28.501   5.712 -0.1928  0.1163 -0.2454
    1DIPC   D2B12022   5.996  28.502   5.214 -0.1848 -0.1893 -0.2043
    1DIPC   D3B12023   5.976  28.081   5.397 -0.0950  0.2206 -0.0152
    1DIPC   C4B12024   6.217  28.021   5.725  0.0662  0.3735 -0.0736
    1DIPC   NC312025  17.938   3.044   6.671  0.2571 -0.1471  0.1964
    1DIPC   PO412026  17.792   2.741   6.450 -0.2743 -0.0572 -0.0937
    1DIPC   GL112027  18.070   2.765   6.033  0.1358 -0.4645 -0.0373
    1DIPC   GL212028  18.114   3.008   5.805  0.0313 -0.2774  0.0594
    1DIPC   C1A12029  17.901   2.564   5.531  0.0831  0.0464 -0.0601
    1DIPC   D2A12030  17.941   2.671   5.055  0.1139 -0.0598  0.2381
    1DIPC   D3A12031  17.562   2.806   4.739 -0.2182 -0.2100  0.3836
    1DIPC   C4A12032  17.143   2.872   4.894 -0.2523  0.0180 -0.1645
    1DIPC   C1B12033  18.049   3.071   5.457  0.0666  0.0348 -0.3035
    1DIPC   D2B12034  18.139   3.220   5.123 -0.3034  0.2244  0.1184
    1DIPC   D3B12035  17.821   3.199   4.862 -0.0151 -0.0887  0.1521
    1DIPC   C4B12036  17.421   3.365   4.981  0.2222  0.1707  0.0656
    1DIPC   NC312037  18.341   6.059   6.389 -0.1326 -0.0330  0.1466
    1DIPC   PO412038  17.926   6.074   6.174 -0.1514 -0.3232 -0.0835
    1DIPC   GL112039  17.910   6.226   5.789  0.2717  0.2647 -0.0051
    1DIPC   GL212040  17.935   5.950   5.667  0.1358 -0.0068 -0.0373
    1DIPC   C1A12041  18.134   6.362   5.502 -0.1634 -0.0006 -0.0682
    1DIPC   D2A12042  18.169   6.385   4.970  0.5159 -0.0405  0.1055
    1DIPC   D3A12043  18.156   6.815   4.897  0.1338 -0.2030 -0.0939
    1DIPC   C4A12044  17.721   7.030   4.833 -0.2768 -0.0552  0.1809
    1DIPC   C1B12045  18.026   5.953   5.180  0.2225  0.0942  0.0795
    1DIPC   D2B12046  17.767   5.991   4.728 -0.0432  0.0960  0.2503
    1DIPC   D3B12047  17.705   6.486   4.803 -0.0401  0.0379 -0.1383
    1DIPC   C4B12048  17.280   6.682   4.852 -0.4999 -0.0092  0.3220
    1DIPC   NC312049  11.347   2.999   7.358 -0.1343 -0.1945  0.1041
    1DIPC   PO412050  11.758   3.037   7.216 -0.0394  0.0074  0.0442
    1DIPC   GL112051  11.580   2.926   6.861  0.1570  0.1384 -0.0580
    1DIPC   GL212052  11.403   2.719   6.911 -0.2170  0.1435  0.1542
    1DIPC   C1A12053  11.199   2.809   6.490 -0.0743  0.2148  0.0285
    1DIPC   D2A12054  10.897   2.733   6.123 -0.1166 -0.0678 -0.1524
    1DIPC   D3A12055  11.119   2.994   5.734 -0.2700  0.0014  0.0036
    1DIPC   C4A12056  10.787   3.265   5.451  0.2659  0.0761  0.1964
    1DIPC   C1B12057  10.989   2.585   6.984  0.0853 -0.0446  0.1797
    1DIPC   D2B12058  10.537   2.458   7.097  0.5927 -0.1056 -0.0012
    1DIPC   D3B12059  10.360   2.254   6.689  0.0709 -0.0670  0.1705
    1DIPC   C4B12060  10.493   2.469   6.316  0.4011 -0.0777  0.0338
    1DIPC   NC312061  18.534  26.612   6.848  0.3783 -0.0524 -0.0472
    1DIPC   PO412062  18.478  26.963   7.116 -0.0450  0.1721  0.1358
    1DIPC   GL112063  18.546  27.125   6.729  0.1774 -0.0316 -0.1202
    1DIPC   GL212064  18.689  27.326   6.512  0.0029 -0.0305  0.1465
    1DIPC   C1A12065  18.539  26.904   6.314 -0.1227 -0.0312  0.0110
    1DIPC   D2A12066  18.705  26.988   5.920  0.0752  0.1745  0.0619
    1DIPC   D3A12067  18.301  27.172   5.879 -0.0523  0.3947 -0.0338
    1DIPC   C4A12068  18.167  27.489   6.053 -0.0597  0.4399  0.0930
    1DIPC   C1B12069  18.700  27.436   6.085  0.2211 -0.0097  0.0123
    1DIPC   D2B12070  18.924  27.464   5.669 -0.0603  0.0464  0.0455
    1DIPC   D3B12071  19.379  27.412   5.496  0.1849  0.0122  0.2310
    1DIPC   C4B12072  19.758  27.519   5.672 -0.1372 -0.1743  0.2199
    1DIPC   NC312073   4.295  18.039   5.312 -0.0267  0.0052  0.1929
    1DIPC   PO412074   3.919  17.883   5.384 -0.1334  0.0889  0.1411
    1DIPC   GL112075   3.602  17.819   5.022 -0.3643  0.0305  0.3315
    1DIPC   GL212076   3.288  17.868   5.084  0.0451  0.1397  0.2177
    1DIPC   C1A12077   3.638  17.743   4.585 -0.1766  0.3056 -0.2720
    1DIPC   D2A12078   3.753  17.992   4.224  0.1128  0.2280 -0.2004
    1DIPC   D3A12079   3.412  18.381   4.251  0.1234  0.0310  0.0983
    1DIPC   C4A12080   2.924  18.402   4.367  0.0071  0.1497  0.0794
    1DIPC   C1B12081   3.144  17.708   4.741  0.0413  0.1362 -0.2684
    1DIPC   D2B12082   3.026  17.393   4.392  0.0240 -0.1628 -0.0831
    1DIPC   D3B12083   3.147  17.055   3.958 -0.1491  0.2010  0.1743
    1DIPC   C4B12084   3.457  16.797   4.113  0.1563 -0.0238  0.1720
    1DIPC   NC312085   4.546  18.122   5.821 -0.2343 -0.1043 -0.0158
    1DIPC   PO412086   4.711  17.874   5.627  0.1292  0.0048 -0.1088
    1DIPC   GL112087   4.896  17.716   5.195 -0.1186 -0.4546  0.0830
    1DIPC   GL212088   4.598  17.794   4.935  0.1090 -0.2284  0.1179
    1DIPC   C1A12089   4.953  17.406   4.824 -0.1474 -0.0613 -0.1705
    1DIPC   D2A12090   5.189  17.083   4.693 -0.0038  0.1785 -0.0483
    1DIPC   D3A12091   5.314  17.122   4.309 -0.0102  0.0831  0.1698
    1DIPC   C4A12092   5.120  17.419   4.066 -0.1757  0.0313  0.0562
    1DIPC   C1B12093   4.510  17.525   4.645  0.0111  0.1720 -0.0678
    1DIPC   D2B12094   4.767  17.440   4.361  0.0277 -0.0489 -0.0206
    1DIPC   D3B12095   4.499  17.486   4.082 -0.2025  0.0874 -0.0444
    1DIPC   C4B12096   4.108  17.650   4.168  0.1931  0.2715  0.1607
    1DIPC   NC312097  25.281   8.428   6.353 -0.0209 -0.3404  0.1871
    1DIPC   PO412098  25.352   8.056   6.100 -0.0483 -0.1123  0.0290
    1DIPC   GL112099  25.353   8.364   5.809 -0.4508  0.0545 -0.3336
    1DIPC   GL212100  24.962   8.496   5.774 -0.0263 -0.2095 -0.3273
    1DIPC   C1A12101  25.365   8.334   5.333  0.2000 -0.1708 -0.1819
    1DIPC   D2A12102  25.200   8.557   4.953 -0.1328  0.0702 -0.3219
    1DIPC   D3A12103  25.383   8.845   4.509  0.0002  0.0496 -0.1713
    1DIPC   C4A12104  25.724   9.049   4.593 -0.1304 -0.0550  0.1942
    1DIPC   C1B12105  24.948   8.551   5.399  0.1024 -0.2965  0.2496
    1DIPC   D2B12106  24.672   8.735   5.077 -0.0116 -0.2915  0.0504
    1DIPC   D3B12107  24.578   8.327   4.850  0.4341 -0.0929 -0.0895
    1DIPC   C4B12108  24.417   8.425   4.426  0.1059  0.0218 -0.0160
    1DIPC   NC312109  21.613  26.293   7.257  0.1604  0.1187 -0.0762
    1DIPC   PO412110  21.239  26.170   6.901  0.3099  0.1435 -0.0817
    1DIPC   GL112111  21.180  26.284   6.533  0.0767 -0.1609  0.0781
    1DIPC   GL212112  21.326  26.173   6.311 -0.0195 -0.1167  0.1311
    1DIPC   C1A12113  20.893  26.421   6.271  0.2428 -0.1066 -0.1821
    1DIPC   D2A12114  20.774  26.705   5.911  0.0425 -0.1220 -0.2879
    1DIPC   D3A12115  20.742  27.117   5.639 -0.0577  0.0498 -0.0177
    1DIPC   C4A12116  20.341  27.319   5.468  0.1138 -0.0456 -0.2105
    1DIPC   C1B12117  21.216  26.236   5.867  0.1455  0.1346  0.0052
    1DIPC   D2B12118  21.082  25.949   5.456  0.0802  0.1349  0.1357
    1DIPC   D3B12119  20.717  25.766   5.192 -0.0133  0.1322  0.0773
    1DIPC   C4B12120  20.395  26.009   4.856 -0.2779  0.0012  0.2580
    1DIPC   NC312121   3.430  21.434   6.369 -0.3263 -0.0570 -0.0953
    1DIPC   PO412122   3.597  21.569   5.916 -0.4274 -0.1014  0.0024
    1DIPC   GL112123   3.450  21.649   5.400 -0.1956 -0.2517  0.3533
    1DIPC   GL212124   3.154  21.728   5.383 -0.3037  0.0150  0.0134
    1DIPC   C1A12125   3.671  21.646   5.003 -0.0176  0.2655 -0.0205
    1DIPC   D2A12126   3.544  21.443   4.746 -0.1511 -0.0925  0.2752
    1DIPC   D3A12127   3.368  21.544   4.391  0.1241 -0.0557  0.3519
    1DIPC   C4A12128   3.466  21.285   3.997 -0.1334 -0.2866  0.0482
    1DIPC   C1B12129   2.854  21.760   5.092 -0.1286 -0.1412 -0.1634
    1DIPC   D2B12130   2.682  22.009   4.810  0.1511  0.2631  0.0563
    1DIPC   D3B12131   2.732  21.548   4.650 -0.0492 -0.0487  0.1953
    1DIPC   C4B12132   2.544  21.246   4.582  0.1520  0.0107 -0.0712
    1DIPC   NC312133  12.528  28.143   7.160 -0.0201 -0.0071  0.0451
    1DIPC   PO412134  12.511  27.895   6.743  0.1675 -0.0184 -0.2081
    1DIPC   GL112135  12.473  27.903   6.419  0.0850  0.1569  0.1855
    1DIPC   GL212136  12.094  27.858   6.416  0.0802  0.0725  0.2306
    1DIPC   C1A12137  12.416  28.171   6.018 -0.3417 -0.1861 -0.2084
    1DIPC   D2A12138  12.180  28.328   5.717  0.2070  0.0565 -0.4070
    1DIPC   D3A12139  11.909  28.431   6.085 -0.0731  0.2885  0.0906
    1DIPC   C4A12140  12.163  28.328   6.387  0.1361 -0.0491 -0.2811
    1DIPC   C1B12141  11.714  27.931   6.165  0.2562 -0.1825 -0.1079
    1DIPC   D2B12142  11.617  28.191   5.754  0.2676 -0.1064 -0.2885
    1DIPC   D3B12143  11.612  28.633   5.660  0.2033 -0.0310  0.1482
    1DIPC   C4B12144  11.493  28.756   5.303  0.0913  0.0960 -0.2359
    1DIPC   NC312145   0.091   4.177   6.434  0.0526 -0.1581 -0.3888
    1DIPC   PO412146  -0.191   4.446   6.531  0.1770 -0.1441 -0.0892
    1DIPC   GL112147  -0.092   4.582   6.164 -0.2197 -0.1977  0.1410
    1DIPC   GL212148   0.188   4.704   6.152  0.1077 -0.0273 -0.0350
    1DIPC   C1A12149   0.036   4.635   5.682 -0.1138 -0.2869 -0.0716
    1DIPC   D2A12150  -0.169   4.591   5.270 -0.2482 -0.3468  0.1003
    1DIPC   D3A12151  -0.319   4.884   4.856 -0.1164  0.0989  0.1230
    1DIPC   C4A12152  -0.240   4.613   4.491  0.0835 -0.1581  0.1662
    1DIPC   C1B12153   0.418   4.979   5.930 -0.2322 -0.1780 -0.0280
    1DIPC   D2B12154   0.243   5.206   5.585  0.2302 -0.0304 -0.2919
    1DIPC   D3B12155   0.177   4.984   5.223 -0.1199 -0.0709 -0.1132
    1DIPC   C4B12156   0.483   5.053   4.898 -0.1058 -0.3264  0.1254
    1DIPC   NC312157  24.496  11.935   5.879 -0.1918 -0.1977 -0.0535
    1DIPC   PO412158  24.875  12.087   6.018  0.1010 -0.1851 -0.0153
    1DIPC   GL112159  24.759  12.367   5.695  0.2399  0.0966 -0.0571
    1DIPC   GL212160  24.472  12.380   5.666  0.0990  0.2144  0.0110
    1DIPC   C1A12161  24.819  12.573   5.333 -0.1783 -0.0665  0.1087
    1DIPC   D2A12162  24.850  12.995   5.173  0.1072  0.0319  0.2289
    1DIPC   D3A12163  25.061  12.798   4.861  0.1301 -0.0020 -0.0582
    1DIPC   C4A12164  25.227  12.579   4.475  0.1147 -0.0452  0.1664
    1DIPC   C1B12165  24.475  12.165   5.239  0.0453  0.0633  0.0213
    1DIPC   D2B12166  24.275  11.867   5.198  0.1583 -0.2154  0.1004
    1DIPC   D3B12167  24.133  11.755   5.530  0.0601  0.3783  0.0816
    1DIPC   C4B12168  24.047  12.252   5.481  0.0142 -0.2157  0.0908
    1DIPC   NC312169  12.761   2.506   7.305  0.2087 -0.2939 -0.0901
    1DIPC   PO412170  12.761   2.230   6.910  0.2067 -0.0349  0.1500
    1DIPC   GL112171  12.697   2.368   6.525  0.0929  0.0069 -0.1245
    1DIPC   GL212172  12.832   2.594   6.553  0.0497  0.1633 -0.2087
    1DIPC   C1A12173  12.528   2.165   6.154 -0.0609  0.2561  0.2024
    1DIPC   D2A12174  12.225   1.826   5.923  0.2162 -0.2107 -0.2644
    1DIPC   D3A12175  12.280   1.722   5.508 -0.2507  0.1175 -0.0618
    1DIPC   C4A12176  12.187   1.302   5.428 -0.2764  0.1010  0.1509
    1DIPC   C1B12177  13.133   2.398   6.292  0.0242 -0.0998 -0.1820
    1DIPC   D2B12178  13.435   2.053   6.216  0.0572 -0.0808 -0.1013
    1DIPC   D3B12179  13.319   2.071   5.741 -0.2289  0.1063 -0.4340
    1DIPC   C4B12180  13.051   1.887   5.319  0.3862  0.0511  0.3466
    1DIPC   NC312181   0.667  16.829   6.304  0.0050  0.0982  0.1775
    1DIPC   PO412182   0.449  17.103   6.508 -0.2282  0.0285 -0.2029
    1DIPC   GL112183   0.377  17.160   5.970 -0.3080 -0.1044  0.1076
    1DIPC   GL212184   0.404  16.911   5.776 -0.1531 -0.1005  0.2695
    1DIPC   C1A12185   0.188  17.323   5.535  0.0049  0.1889 -0.0112
    1DIPC   D2A12186  -0.030  17.542   5.259  0.1835  0.3782 -0.2202
    1DIPC   D3A12187   0.106  17.490   4.855 -0.1694  0.0763 -0.0428
    1DIPC   C4A12188  -0.163  17.463   4.563  0.1157 -0.0022  0.2663
    1DIPC   C1B12189   0.664  17.103   5.553 -0.1418 -0.0608  0.1941
    1DIPC   D2B12190   0.727  17.444   5.338  0.2850  0.0833  0.1211
    1DIPC   D3B12191   1.020  17.342   4.866 -0.0771  0.0318  0.0373
    1DIPC   C4B12192   0.941  17.233   4.447  0.3290  0.0417 -0.0803
    1DIPC   NC312193   6.705   9.681   7.144  0.3140 -0.1781  0.0557
    1DIPC   PO412194   6.314   9.824   6.949 -0.0885 -0.1349  0.0338
    1DIPC   GL112195   6.228   9.644   6.548 -0.2803 -0.5461  0.0078
    1DIPC   GL212196   6.502   9.636   6.427  0.2080  0.1109 -0.0390
    1DIPC   C1A12197   5.959   9.683   6.177 -0.0706 -0.0574 -0.5361
    1DIPC   D2A12198   5.565   9.555   6.009 -0.0432 -0.1588  0.1538
    1DIPC   D3A12199   5.722   9.289   5.636  0.1962 -0.0462  0.0105
    1DIPC   C4A12200   5.535   8.883   5.743  0.1061  0.0351  0.1455
    1DIPC   C1B12201   6.507   9.813   6.046  0.1532  0.0721  0.0495
    1DIPC   D2B12202   6.471   9.852   5.619 -0.0268 -0.2056  0.1699
    1DIPC   D3B12203   6.729   9.620   5.489 -0.1510  0.0414  0.2295
    1DIPC   C4B12204   7.107   9.707   5.188 -0.0795 -0.2704 -0.2209
    1DIPC   NC312205  16.671   4.614   6.103  0.1661  0.1576 -0.0369
    1DIPC   PO412206  17.133   4.488   5.931  0.1127 -0.0027 -0.0447
    1DIPC   GL112207  16.845   4.284   5.706  0.0706  0.0115 -0.5207
    1DIPC   GL212208  16.563   4.251   5.775  0.0312 -0.1159  0.0259
    1DIPC   C1A12209  16.911   3.852   5.552 -0.1178 -0.1454 -0.1308
    1DIPC   D2A12210  16.696   3.606   5.311  0.1165  0.0059 -0.0574
    1DIPC   D3A12211  16.876   3.266   5.021 -0.0393  0.0615 -0.1839
    1DIPC   C4A12212  16.706   2.905   5.122 -0.2274 -0.2154  0.1416
    1DIPC   C1B12213  16.363   3.983   5.516 -0.0746  0.1598  0.2606
    1DIPC   D2B12214  16.143   3.672   5.460  0.1664 -0.0348 -0.3425
    1DIPC   D3B12215  16.364   3.399   5.682 -0.0195 -0.0390 -0.0064
    1DIPC   C4B12216  16.737   3.137   5.572 -0.4594  0.1969  0.1975
    1DIPC   NC312217  24.203   2.186   7.284  0.4709  0.2784 -0.1539
    1DIPC   PO412218  23.982   2.538   7.362 -0.0595  0.1020  0.1157
    1DIPC   GL112219  23.726   2.719   7.083 -0.0234  0.2556 -0.1781
    1DIPC   GL212220  23.457   2.939   7.078 -0.1315 -0.1225  0.0173
    1DIPC   C1A12221  23.397   2.490   6.813  0.1302  0.0891 -0.3993
    1DIPC   D2A12222  23.044   2.296   6.711 -0.0751 -0.0892  0.0466
    1DIPC   D3A12223  23.094   2.420   6.353  0.1356 -0.1706 -0.0083
    1DIPC   C4A12224  22.860   2.436   6.071 -0.0248  0.4388 -0.2211
    1DIPC   C1B12225  23.345   2.966   6.700  0.4754  0.0918  0.1321
    1DIPC   D2B12226  23.209   3.321   6.423  0.0963  0.1203  0.3275
    1DIPC   D3B12227  22.925   3.356   6.064  0.1610 -0.0459 -0.2019
    1DIPC   C4B12228  23.036   3.295   5.655 -0.2280  0.0308 -0.0237
    1DIPC   NC312229  13.628   3.031   7.583 -0.1726  0.0851 -0.0367
    1DIPC   PO412230  13.417   3.019   7.106 -0.1196 -0.4630  0.1868
    1DIPC   GL112231  13.853   3.014   6.816 -0.1716 -0.1522 -0.0752
    1DIPC   GL212232  13.766   3.279   6.613  0.1408 -0.2386 -0.2217
    1DIPC   C1A12233  14.268   3.370   6.537  0.0787 -0.2414  0.1859
    1DIPC   D2A12234  14.409   3.591   6.287  0.2943 -0.0130  0.0942
    1DIPC   D3A12235  14.601   3.779   5.890 -0.1175  0.1671  0.0201
    1DIPC   C4A12236  14.507   4.170   5.817  0.1513  0.1314 -0.0763
    1DIPC   C1B12237  13.822   3.499   6.248 -0.0603 -0.2325 -0.2191
    1DIPC   D2B12238  14.105   3.469   5.979 -0.2902 -0.0552  0.0149
    1DIPC   D3B12239  14.134   3.140   5.685  0.4836 -0.0230 -0.1087
    1DIPC   C4B12240  14.371   3.407   5.400  0.2006 -0.1963  0.2588
    1DIPC   NC312241  25.123  14.863   6.300 -0.2123 -0.2336 -0.1674
    1DIPC   PO412242  25.039  14.915   5.955  0.0243  0.2936 -0.0878
    1DIPC   GL112243  24.786  14.808   5.590 -0.1587  0.2130  0.0816
    1DIPC   GL212244  24.664  15.127   5.308 -0.0944 -0.0894  0.0480
    1DIPC   C1A12245  24.593  14.562   5.226 -0.1297 -0.0993  0.0448
    1DIPC   D2A12246  24.455  14.281   4.847 -0.0985  0.2670 -0.1351
    1DIPC   D3A12247  24.517  13.939   4.683  0.0526  0.0177  0.1289
    1DIPC   C4A12248  24.181  13.762   4.610  0.1954 -0.0143 -0.0153
    1DIPC   C1B12249  24.612  14.983   4.937 -0.1379 -0.0551  0.0689
    1DIPC   D2B12250  24.595  14.664   4.654  0.0772  0.0867 -0.2635
    1DIPC   D3B12251  24.413  14.820   4.445  0.0814  0.1068  0.1145
    1DIPC   C4B12252  24.292  15.133   4.111 -0.0332 -0.2240 -0.1458
    1DIPC   NC312253   0.885   0.104   6.679 -0.3224 -0.3377 -0.1827
    1DIPC   PO412254   1.162   0.365   6.442 -0.1193 -0.2794 -0.1171
    1DIPC   GL112255   1.165   0.425   6.042 -0.0204 -0.0340  0.2148
    1DIPC   GL212256   1.367   0.531   5.739  0.0852 -0.1363 -0.0985
    1DIPC   C1A12257   0.933   0.297   5.743 -0.3508  0.0537 -0.1125
    1DIPC   D2A12258   0.911  -0.157   5.590 -0.1340  0.0490 -0.1401
    1DIPC   D3A12259   1.299  -0.008   5.556 -0.1580  0.0929  0.1374
    1DIPC   C4A12260   1.596  -0.053   5.129 -0.0841  0.0564  0.1162
    1DIPC   C1B12261   1.415   0.484   5.237  0.4712 -0.0518 -0.1537
    1DIPC   D2B12262   1.437   0.308   4.777 -0.0704 -0.0745  0.0404
    1DIPC   D3B12263   1.100   0.522   4.612 -0.1128 -0.1601 -0.1802
    1DIPC   C4B12264   0.625   0.787   4.803  0.0812  0.0427  0.2809
    1DIPC   NC312265  28.809  23.253   6.414  0.2653 -0.1815 -0.2405
    1DIPC   PO412266  29.157  23.135   6.124 -0.1353 -0.0584  0.1770
    1DIPC   GL112267  29.126  22.982   5.751 -0.1320 -0.1419  0.0832
    1DIPC   GL212268  28.818  22.737   5.608  0.1695 -0.1514  0.0352
    1DIPC   C1A12269  28.893  23.219   5.364  0.2219 -0.1124  0.1665
    1DIPC   D2A12270  29.080  23.300   4.984 -0.2236 -0.0883  0.1856
    1DIPC   D3A12271  29.376  23.051   4.791 -0.0244  0.3283 -0.0032
    1DIPC   C4A12272  29.674  22.785   5.039  0.1139  0.1085  0.0712
    1DIPC   C1B12273  28.699  22.841   5.165  0.0160 -0.1445  0.0281
    1DIPC   D2B12274  28.828  22.892   4.724 -0.0997 -0.0349  0.0879
    1DIPC   D3B12275  28.616  22.572   4.657  0.3675  0.4439  0.0756
    1DIPC   C4B12276  28.427  22.442   5.059  0.1022  0.2766  0.1541
    1DIPC   NC312277  12.767   0.158   7.110 -0.0990 -0.0432  0.2363
    1DIPC   PO412278  12.589   0.645   7.109 -0.2153 -0.0894  0.0268
    1DIPC   GL112279  12.535   0.394   6.747  0.1419 -0.2659  0.0120
    1DIPC   GL212280  12.560   0.692   6.467  0.4939  0.0239 -0.0090
    1DIPC   C1A12281  12.429   0.188   6.433  0.3165 -0.3719 -0.1291
    1DIPC   D2A12282  12.144   0.083   6.025 -0.1255 -0.1938 -0.1319
    1DIPC   D3A12283  11.839  -0.198   5.951 -0.2004 -0.1232 -0.0982
    1DIPC   C4A12284  11.695  -0.242   5.502 -0.0447 -0.1812  0.4074
    1DIPC   C1B12285  12.446   1.134   6.345  0.2382  0.2047  0.0591
    1DIPC   D2B12286  12.598   1.481   6.285  0.1669 -0.0594 -0.0733
    1DIPC   D3B12287  12.979   1.394   6.104 -0.0136 -0.0771  0.1499
    1DIPC   C4B12288  13.201   1.582   5.792 -0.0112  0.1354  0.1862
    1DIPC   NC312289  25.258  12.304   5.772 -0.1064 -0.1457 -0.5890
    1DIPC   PO412290  25.318  12.771   5.899 -0.1419 -0.0754 -0.0130
    1DIPC   GL112291  25.357  12.673   5.390  0.1181  0.0766  0.1550
    1DIPC   GL212292  25.753  12.635   5.305  0.1532  0.2727  0.0397
    1DIPC   C1A12293  25.252  12.310   5.106 -0.2941 -0.1084  0.1273
    1DIPC   D2A12294  25.139  12.150   4.714 -0.0032 -0.0330 -0.2268
    1DIPC   D3A12295  24.897  12.273   4.350 -0.2135 -0.1032  0.1441
    1DIPC   C4A12296  24.810  11.913   4.166  0.1865 -0.0724  0.0904
    1DIPC   C1B12297  25.733  12.756   4.878 -0.1363  0.3518  0.1225
    1DIPC   D2B12298  26.095  12.601   4.624 -0.0201 -0.1313 -0.0541
    1DIPC   D3B12299  25.877  12.810   4.258  0.0076  0.1040  0.3540
    1DIPC   C4B12300  25.500  13.028   4.396  0.3918 -0.1498 -0.1281
    1DIPC   NC312301  23.815  14.145   5.982  0.0420 -0.1257 -0.1893
    1DIPC   PO412302  23.487  13.923   6.228  0.0046 -0.0866  0.2418
    1DIPC   GL112303  23.204  13.849   5.847 -0.1266 -0.2229  0.0274
    1DIPC   GL212304  23.171  13.533   5.855  0.1819 -0.1437  0.1997
    1DIPC   C1A12305  22.981  13.843   5.458  0.1919 -0.1435 -0.0083
    1DIPC   D2A12306  22.737  13.808   5.066 -0.0146 -0.4933 -0.0082
    1DIPC   D3A12307  22.586  14.240   4.991 -0.1862 -0.0745  0.2563
    1DIPC   C4A12308  22.232  14.323   5.201  0.3233  0.1272 -0.0884
    1DIPC   C1B12309  23.192  13.320   5.446  0.1349 -0.0724 -0.4276
    1DIPC   D2B12310  23.023  13.030   5.247  0.1818  0.2157 -0.0876
    1DIPC   D3B12311  23.083  12.657   4.985  0.1434 -0.0051 -0.0788
    1DIPC   C4B12312  23.320  12.690   4.610 -0.0724  0.1578  0.2147
    1DIPC   NC312313  12.015  11.160   7.606 -0.1132 -0.0837 -0.3334
    1DIPC   PO412314  11.788  11.469   7.344  0.2805  0.0608  0.0291
    1DIPC   GL112315  11.863  11.622   6.942 -0.1345  0.0852 -0.0561
    1DIPC   GL212316  12.076  11.851   6.969 -0.3081  0.1998  0.1119
    1DIPC   C1A12317  11.662  11.488   6.549  0.0518  0.0503  0.2515
    1DIPC   D2A12318  11.589  11.564   6.087  0.2364 -0.2545  0.0451
    1DIPC   D3A12319  11.666  11.288   5.663 -0.3468  0.2071 -0.0247
    1DIPC   C4A12320  12.028  11.291   5.546  0.0242  0.1238 -0.0063
    1DIPC   C1B12321  11.679  12.060   6.850 -0.1884 -0.2860  0.0909
    1DIPC   D2B12322  11.277  12.140   6.797 -0.2759  0.1117  0.1526
    1DIPC   D3B12323  11.315  11.850   6.557  0.0427  0.0866 -0.0290
    1DIPC   C4B12324  11.173  11.806   6.076  0.0503 -0.0832  0.1118
    1DIPC   NC312325   9.680   5.511   7.026 -0.2488  0.1051  0.1444
    1DIPC   PO412326   9.893   5.209   6.732 -0.0692 -0.0978 -0.4978
    1DIPC   GL112327   9.947   5.071   6.418  0.1610  0.1788  0.0927
    1DIPC   GL212328   9.911   5.429   6.262 -0.1600 -0.3052  0.1463
    1DIPC   C1A12329   9.679   4.799   6.194  0.0188  0.2528  0.3238
    1DIPC   D2A12330   9.480   4.672   5.758 -0.0699 -0.0685 -0.0515
    1DIPC   D3A12331   9.737   4.245   5.618 -0.1968  0.1573 -0.0297
    1DIPC   C4A12332  10.150   4.186   5.467 -0.0693 -0.2901  0.1461
    1DIPC   C1B12333   9.943   5.225   5.824  0.2758 -0.1524 -0.0206
    1DIPC   D2B12334  10.161   5.199   5.385  0.1746  0.2625 -0.1439
    1DIPC   D3B12335  10.507   5.101   5.689 -0.2898 -0.0978  0.4716
    1DIPC   C4B12336  10.900   5.449   5.826 -0.1180  0.0732 -0.0346
    1DIPC   NC312337   4.820  17.041   5.967 -0.0780  0.0042 -0.0727
    1DIPC   PO412338   4.358  17.050   6.129 -0.1958  0.0493 -0.3363
    1DIPC   GL112339   4.464  17.019   5.596 -0.2157  0.2158 -0.5441
    1DIPC   GL212340   4.216  17.000   5.461 -0.3637 -0.1030 -0.1982
    1DIPC   C1A12341   4.559  16.642   5.283 -0.4940 -0.1679  0.0923
    1DIPC   D2A12342   4.309  16.466   4.949  0.3409  0.1767 -0.2188
    1DIPC   D3A12343   3.946  16.570   4.786 -0.0125 -0.2195  0.0208
    1DIPC   C4A12344   3.839  16.907   4.501  0.2198  0.1320  0.0227
    1DIPC   C1B12345   4.073  16.950   5.134  0.0932  0.3906 -0.3590
    1DIPC   D2B12346   4.279  16.920   4.737  0.1666 -0.0110 -0.3753
    1DIPC   D3B12347   4.233  16.618   4.372 -0.0598 -0.1365  0.0647
    1DIPC   C4B12348   3.991  16.169   4.472  0.1036  0.0105 -0.2235
    1DIPC   NC312349   4.756  10.743   6.950  0.1233 -0.1889  0.0106
    1DIPC   PO412350   4.338  10.680   6.776 -0.0554 -0.1020 -0.0697
    1DIPC   GL112351   4.227  10.701   6.362  0.1047  0.2382  0.0218
    1DIPC   GL212352   4.361  11.055   6.205  0.3133  0.3305 -0.0265
    1DIPC   C1A12353   4.285  10.581   5.959  0.0571 -0.0268 -0.0519
    1DIPC   D2A12354   4.585  10.491   5.760  0.1069  0.1217  0.2346
    1DIPC   D3A12355   4.294  10.407   5.490 -0.0932 -0.3385  0.0811
    1DIPC   C4A12356   4.491  10.127   5.045 -0.1387  0.1733 -0.0302
    1DIPC   C1B12357   4.771  11.063   5.957  0.0671 -0.0086  0.3336
    1DIPC   D2B12358   4.981  11.197   5.550 -0.1586  0.0060 -0.0113
    1DIPC   D3B12359   5.122  11.653   5.593 -0.0284  0.1552 -0.0839
    1DIPC   C4B12360   4.826  11.861   5.409 -0.0167  0.0742 -0.0465
    1DIPC   NC312361   6.249  14.223   6.695  0.3591 -0.2039  0.2266
    1DIPC   PO412362   6.392  13.983   6.392  0.2817 -0.1328  0.0759
    1DIPC   GL112363   6.498  13.922   5.990 -0.2804 -0.0162  0.3180
    1DIPC   GL212364   6.517  14.231   6.011  0.1029 -0.2164  0.2216
    1DIPC   C1A12365   6.550  13.843   5.637 -0.0268  0.3075 -0.1964
    1DIPC   D2A12366   6.478  13.884   5.201 -0.0609  0.1896  0.1664
    1DIPC   D3A12367   6.476  13.588   4.842  0.1064 -0.4256  0.2950
    1DIPC   C4A12368   6.524  13.166   4.884  0.1377  0.1520  0.1217
    1DIPC   C1B12369   6.627  14.461   5.578  0.2895 -0.2976  0.1549
    1DIPC   D2B12370   6.581  14.740   5.179 -0.1497 -0.3417 -0.2354
    1DIPC   D3B12371   6.737  14.979   5.532  0.1901 -0.0490  0.0200
    1DIPC   C4B12372   7.056  15.302   5.566 -0.0032  0.2788 -0.0342
    1DIPC   NC312373   5.517   2.207   7.235  0.2886  0.0553 -0.2121
    1DIPC   PO412374   5.225   1.957   7.090 -0.1713 -0.3364 -0.0394
    1DIPC   GL112375   5.143   1.780   6.678  0.3087  0.0807  0.1097
    1DIPC   GL212376   5.245   1.522   6.673 -0.0317 -0.2446  0.1586
    1DIPC   C1A12377   5.163   1.946   6.372 -0.2505  0.1421  0.1296
    1DIPC   D2A12378   5.189   1.968   6.026 -0.2251 -0.1431 -0.1990
    1DIPC   D3A12379   4.789   2.008   5.969  0.1998 -0.0683 -0.1481
    1DIPC   C4A12380   4.925   1.889   5.495 -0.0849 -0.0175  0.3392
    1DIPC   C1B12381   5.398   1.539   6.287  0.1719 -0.2642  0.1412
    1DIPC   D2B12382   5.572   1.683   5.870  0.0343 -0.1708  0.0457
    1DIPC   D3B12383   6.017   1.868   5.956  0.1471  0.1844  0.1426
    1DIPC   C4B12384   6.141   2.187   5.895 -0.0875 -0.2815 -0.0393
    1DIPC   NC312385  29.094  16.947   6.513  0.0794  0.1054  0.0843
    1DIPC   PO412386  29.166  17.069   6.140 -0.0547 -0.1293  0.0628
    1DIPC   GL112387  28.968  17.206   5.819  0.1450  0.0662 -0.0331
    1DIPC   GL212388  28.582  17.241   5.798 -0.3050  0.0383 -0.0983
    1DIPC   C1A12389  28.810  16.894   5.538 -0.0386  0.1025 -0.0663
    1DIPC   D2A12390  28.415  16.958   5.405 -0.0201  0.4134  0.0099
    1DIPC   D3A12391  28.454  17.178   5.008 -0.0468 -0.0143 -0.2572
    1DIPC   C4A12392  28.527  17.509   4.737  0.1283 -0.0685  0.3086
    1DIPC   C1B12393  28.666  17.438   5.445  0.2242 -0.2258 -0.1554
    1DIPC   D2B12394  28.945  17.342   5.252  0.0527  0.1479  0.1690
    1DIPC   D3B12395  29.008  17.410   4.783  0.0664  0.1717  0.0612
    1DIPC   C4B12396  28.975  17.155   4.489  0.3607  0.2601 -0.2517
    1DIPC   NC312397  12.097  27.353   6.680  0.1440 -0.2501 -0.2328
    1DIPC   PO412398  12.408  27.281   6.440  0.1194  0.0889  0.1767
    1DIPC   GL112399  12.276  27.421   6.159 -0.0262  0.2031  0.1059
    1DIPC   GL212400  11.865  27.433   6.217 -0.0096 -0.1529 -0.1148
    1DIPC   C1A12401  12.239  27.722   5.933  0.0541 -0.2513 -0.0212
    1DIPC   D2A12402  12.339  27.860   5.565  0.0723 -0.1408 -0.0994
    1DIPC   D3A12403  11.918  27.896   5.456 -0.1634 -0.0610 -0.0423
    1DIPC   C4A12404  11.743  28.272   5.257 -0.3747 -0.0640  0.0608
    1DIPC   C1B12405  11.621  27.513   5.825  0.1500 -0.0222 -0.3647
    1DIPC   D2B12406  11.538  27.204   5.476  0.1560 -0.1944  0.0593
    1DIPC   D3B12407  11.629  27.443   5.187 -0.0928 -0.2065  0.0872
    1DIPC   C4B12408  11.470  27.880   5.138 -0.2327  0.0423  0.3232
    1DIPC   NC312409  13.722   0.605   7.306  0.1941 -0.0016 -0.0549
    1DIPC   PO412410  14.023   0.811   7.110 -0.1259  0.0749  0.1955
    1DIPC   GL112411  13.870   0.754   6.674 -0.0337 -0.1080  0.0592
    1DIPC   GL212412  14.050   0.901   6.493 -0.0733  0.0509  0.1731
    1DIPC   C1A12413  13.675   0.582   6.239  0.2735  0.0713 -0.3716
    1DIPC   D2A12414  13.471   0.256   5.883  0.1333  0.0388 -0.0486
    1DIPC   D3A12415  13.745  -0.037   5.972  0.0613  0.2350  0.1425
    1DIPC   C4A12416  13.448  -0.284   5.678  0.1658  0.1172 -0.0809
    1DIPC   C1B12417  13.949   0.919   6.025 -0.1563 -0.0798 -0.2730
    1DIPC   D2B12418  13.533   0.883   5.765 -0.3643  0.1714 -0.0325
    1DIPC   D3B12419  13.528   1.073   5.340  0.1877  0.0328  0.0363
    1DIPC   C4B12420  13.212   1.344   5.384 -0.0611 -0.2479  0.0509
    1DIPC   NC312421  14.289   6.212   7.159 -0.0183 -0.1947 -0.0965
    1DIPC   PO412422  14.663   6.029   7.053  0.0117 -0.0637 -0.1607
    1DIPC   GL112423  14.642   5.972   6.648 -0.0125  0.0907  0.1487
    1DIPC   GL212424  14.899   5.889   6.464 -0.1233 -0.0926  0.2958
    1DIPC   C1A12425  14.292   6.017   6.399 -0.2803  0.0496 -0.1092
    1DIPC   D2A12426  13.923   6.184   6.429 -0.2534 -0.4262  0.1333
    1DIPC   D3A12427  14.072   6.490   6.041  0.0170  0.2131 -0.1716
    1DIPC   C4A12428  14.097   6.258   5.679 -0.1432 -0.0791 -0.0608
    1DIPC   C1B12429  14.604   5.863   6.053  0.1064 -0.2403  0.3961
    1DIPC   D2B12430  14.290   5.733   5.663  0.0307 -0.0833 -0.0912
    1DIPC   D3B12431  14.035   5.878   5.312 -0.0119  0.1001  0.0870
    1DIPC   C4B12432  13.696   6.220   5.242  0.0706 -0.1675  0.0706
    1DIPC   NC312433  23.293   8.692   6.735  0.1281 -0.0447 -0.4960
    1DIPC   PO412434  23.493   8.792   6.480  0.1187  0.0819  0.0287
    1DIPC   GL112435  23.367   8.648   6.113  0.2257  0.0262 -0.0427
    1DIPC   GL212436  23.491   8.843   5.869  0.0385 -0.2642  0.4302
    1DIPC   C1A12437  23.065   8.435   5.949 -0.0629 -0.0765 -0.2463
    1DIPC   D2A12438  22.781   8.020   6.082  0.0848 -0.0258 -0.0087
    1DIPC   D3A12439  22.532   8.007   5.802  0.1379  0.0564  0.1281
    1DIPC   C4A12440  22.331   7.569   5.812 -0.0085  0.4786 -0.1624
    1DIPC   C1B12441  23.505   9.257   5.667  0.3160  0.2143  0.2292
    1DIPC   D2B12442  23.236   9.526   5.379  0.1271  0.0061  0.1639
    1DIPC   D3B12443  23.226   9.202   5.093  0.0823  0.1520  0.0048
    1DIPC   C4B12444  22.974   8.791   5.083  0.0518  0.0963 -0.4378
    1DIPC   NC312445  27.131  12.486   6.146 -0.0584  0.0200 -0.0889
    1DIPC   PO412446  26.701  12.634   5.964  0.0144 -0.0490  0.1671
    1DIPC   GL112447  26.692  12.677   5.455  0.0671  0.3574 -0.0835
    1DIPC   GL212448  26.901  12.418   5.427  0.0415  0.1757  0.0135
    1DIPC   C1A12449  26.705  12.594   4.938  0.3602 -0.0132 -0.2181
    1DIPC   D2A12450  26.889  12.505   4.543  0.0877 -0.1845 -0.1467
    1DIPC   D3A12451  26.564  12.824   4.429 -0.1068  0.2304 -0.3393
    1DIPC   C4A12452  26.667  13.208   4.202 -0.3142  0.0085  0.0199
    1DIPC   C1B12453  27.100  12.763   5.188 -0.1155  0.1268  0.0286
    1DIPC   D2B12454  27.107  13.204   5.046  0.0820  0.3196 -0.0556
    1DIPC   D3B12455  26.914  13.057   4.653 -0.1932 -0.1284  0.0185
    1DIPC   C4B12456  27.151  12.901   4.255  0.0368  0.0125  0.3541
    1DIPC   NC312457   4.020   9.640   6.522  0.2468 -0.0263  0.0035
    1DIPC   PO412458   4.208   9.255   6.517 -0.1897 -0.3204  0.0087
    1DIPC   GL112459   4.201   9.409   6.143 -0.2400 -0.3401 -0.1614
    1DIPC   GL212460   4.380   9.635   6.096  0.3075 -0.0426 -0.1932
    1DIPC   C1A12461   4.226   9.487   5.661 -0.0114 -0.1016  0.0201
    1DIPC   D2A12462   4.312   9.891   5.466 -0.0458  0.0859 -0.0894
    1DIPC   D3A12463   3.989   9.690   5.210  0.1480  0.2006  0.0596
    1DIPC   C4A12464   3.667   9.823   4.902  0.1239 -0.1143 -0.2054
    1DIPC   C1B12465   4.650   9.289   5.905  0.1303 -0.0254 -0.1200
    1DIPC   D2B12466   4.540   8.881   5.971 -0.4434  0.1275  0.2650
    1DIPC   D3B12467   4.663   8.587   5.613  0.0435  0.0459 -0.0799
    1DIPC   C4B12468   4.421   8.186   5.439  0.0928  0.2856  0.1025
    1DIPC   NC312469  14.591  29.390   6.718  0.3668 -0.0890 -0.0552
    1DIPC   PO412470  14.374  29.257   6.322 -0.1643 -0.1515  0.0948
    1DIPC   GL112471  14.738  29.060   6.190 -0.3339  0.0428  0.1995
    1DIPC   GL212472  14.828  28.757   6.280  0.1867 -0.1797  0.3259
    1DIPC   C1A12473  15.255  29.036   6.222 -0.1018 -0.1216  0.1177
    1DIPC   D2A12474  15.670  28.933   6.141 -0.0849  0.3849  0.2492
    1DIPC   D3A12475  15.657  28.782   5.736  0.0013 -0.1955 -0.3943
    1DIPC   C4A12476  15.523  28.936   5.371 -0.2189 -0.0919  0.2916
    1DIPC   C1B12477  14.752  28.582   5.858 -0.3357 -0.0344  0.2029
    1DIPC   D2B12478  14.706  28.641   5.433 -0.1222  0.1866 -0.0148
    1DIPC   D3B12479  14.686  29.190   5.476  0.0141 -0.0703  0.0394
    1DIPC   C4B12480  14.280  29.324   5.530 -0.1683  0.1954 -0.0410
    1DIPC   NC312481  29.384   4.864   6.623  0.4877 -0.1832  0.0165
    1DIPC   PO412482  29.152   5.261   6.631  0.1130  0.1472 -0.1885
    1DIPC   GL112483  29.179   5.135   6.227  0.0199  0.0334 -0.0631
    1DIPC   GL212484  28.961   5.436   6.178 -0.1893 -0.0071  0.2390
    1DIPC   C1A12485  28.950   5.052   5.925 -0.1480  0.0692  0.2667
    1DIPC   D2A12486  28.694   5.181   5.556  0.1611 -0.0801  0.1619
    1DIPC   D3A12487  28.585   5.506   5.820 -0.0110 -0.0625  0.2146
    1DIPC   C4A12488  28.433   5.913   5.611 -0.0956  0.0069  0.1126
    1DIPC   C1B12489  29.069   5.503   5.729  0.1497 -0.0223 -0.0196
    1DIPC   D2B12490  29.563   5.550   5.618  0.0822  0.2642 -0.2145
    1DIPC   D3B12491  29.747   5.405   5.213 -0.0986  0.3911  0.2115
    1DIPC   C4B12492  30.059   5.517   4.989  0.0023 -0.1336 -0.0966
    1DIPC   NC312493  28.489  21.869   6.104  0.0683 -0.0874 -0.1183
    1DIPC   PO412494  28.153  21.619   6.010 -0.0139 -0.3343  0.3414
    1DIPC   GL112495  28.216  21.211   5.883 -0.3326  0.4214 -0.0836
    1DIPC   GL212496  28.505  21.207   5.774 -0.1258  0.0646  0.3182
    1DIPC   C1A12497  28.238  20.866   5.958  0.1290  0.0555 -0.0496
    1DIPC   D2A12498  28.232  20.439   5.816  0.0570  0.2350 -0.3080
    1DIPC   D3A12499  28.169  20.429   5.447  0.1617  0.0751  0.2119
    1DIPC   C4A12500  28.388  20.577   5.043 -0.2213 -0.1705 -0.1851
    1DIPC   C1B12501  28.370  21.394   5.406 -0.0310 -0.0545 -0.0483
    1DIPC   D2B12502  28.554  21.526   4.896  0.1230  0.0815 -0.3441
    1DIPC   D3B12503  28.279  21.126   4.926  0.1334  0.0009  0.3399
    1DIPC   C4B12504  28.201  20.770   4.586 -0.0073  0.2414 -0.2530
    1DIPC   NC312505   4.933  10.157   6.851 -0.2078  0.0630  0.1481
    1DIPC   PO412506   5.367  10.076   6.860  0.2869  0.0458 -0.1266
    1DIPC   GL112507   5.272   9.840   6.367 -0.0323  0.1257  0.1765
    1DIPC   GL212508   4.984   9.975   6.381 -0.1746  0.0076 -0.2610
    1DIPC   C1A12509   5.253   9.872   5.890 -0.1472 -0.0753  0.0874
    1DIPC   D2A12510   5.364   9.956   5.450 -0.2891  0.0519 -0.3325
    1DIPC   D3A12511   5.388   9.605   5.406  0.1735  0.0808 -0.0018
    1DIPC   C4A12512   5.209   9.392   5.742  0.2230  0.1677 -0.1779
    1DIPC   C1B12513   4.941   9.553   6.137 -0.0218  0.2622  0.1303
    1DIPC   D2B12514   5.080   9.037   6.145  0.2626 -0.2494 -0.0307
    1DIPC   D3B12515   5.021   8.986   5.673  0.0535  0.1169  0.3370
    1DIPC   C4B12516   4.563   9.042   5.475 -0.3774 -0.0095  0.4625
    1DIPC   NC312517   3.711   9.613   7.093 -0.3308 -0.1206  0.0161
    1DIPC   PO412518   3.565   9.635   6.679 -0.0296 -0.0457 -0.0304
    1DIPC   GL112519   3.571   9.543   6.277 -0.2212  0.0894 -0.0452
    1DIPC   GL212520   3.271   9.595   6.178  0.1383  0.2588  0.1070
    1DIPC   C1A12521   3.716   9.449   5.863 -0.3483  0.0010 -0.0762
    1DIPC   D2A12522   3.796   9.278   5.432  0.0251 -0.1453 -0.1863
    1DIPC   D3A12523   3.559   8.899   5.273  0.2924  0.2096  0.0438
    1DIPC   C4A12524   3.611   8.774   4.816 -0.0942  0.0018 -0.1417
    1DIPC   C1B12525   3.140   9.568   5.683  0.1123  0.1908 -0.0473
    1DIPC   D2B12526   3.074   9.696   5.217 -0.2494 -0.1121 -0.3779
    1DIPC   D3B12527   3.075  10.128   4.970 -0.2480 -0.1027 -0.1083
    1DIPC   C4B12528   2.733  10.290   4.605  0.0302 -0.1632 -0.1790
    1DIPC   NC312529   7.139   8.887   7.247  0.1865 -0.0728  0.1041
    1DIPC   PO412530   6.984   9.286   7.136  0.1290 -0.0843  0.1117
    1DIPC   GL112531   7.174   9.156   6.709  0.0758 -0.0024  0.0211
    1DIPC   GL212532   7.121   8.852   6.712  0.3112 -0.0633  0.1918
    1DIPC   C1A12533   7.370   9.095   6.344 -0.1989 -0.0651 -0.1512
    1DIPC   D2A12534   7.318   9.069   5.909  0.0459 -0.2496 -0.0914
    1DIPC   D3A12535   7.157   9.342   5.588 -0.2427  0.2159 -0.4617
    1DIPC   C4A12536   7.222   9.091   5.169 -0.1211 -0.4612  0.2074
    1DIPC   C1B12537   7.189   8.350   6.586  0.1194 -0.1087  0.1676
    1DIPC   D2B12538   6.975   7.961   6.368 -0.2155  0.1275 -0.0757
    1DIPC   D3B12539   7.285   8.100   6.127  0.0805 -0.2212  0.2324
    1DIPC   C4B12540   7.366   8.536   6.095  0.0319 -0.1646 -0.2547
    1DIPC   NC312541  24.211  27.188   6.962 -0.0390 -0.1536 -0.2408
    1DIPC   PO412542  24.348  27.582   6.782  0.0488  0.0876  0.0734
    1DIPC   GL112543  24.316  27.716   6.375 -0.1344 -0.2018 -0.1395
    1DIPC   GL212544  24.620  27.784   6.258 -0.1427 -0.0278 -0.0319
    1DIPC   C1A12545  24.141  27.518   5.963  0.0967 -0.0101  0.0479
    1DIPC   D2A12546  23.749  27.261   5.902 -0.1056 -0.0029  0.0686
    1DIPC   D3A12547  23.691  27.101   5.492 -0.1732 -0.0844  0.1619
    1DIPC   C4A12548  23.767  26.771   5.258 -0.1915  0.0751  0.1482
    1DIPC   C1B12549  24.477  27.847   5.768  0.0086 -0.0351 -0.1243
    1DIPC   D2B12550  24.183  28.013   5.559  0.0422  0.1374 -0.1449
    1DIPC   D3B12551  24.502  28.351   5.549 -0.1739 -0.2699  0.0699
    1DIPC   C4B12552  24.517  28.640   5.115  0.1680  0.1797 -0.0771
    1DIPC   NC312553  23.542  24.662   7.024  0.1002  0.1415  0.2974
    1DIPC   PO412554  23.394  24.936   6.757  0.2575 -0.0204 -0.0998
    1DIPC   GL112555  23.258  24.659   6.417  0.0163  0.0931  0.3844
    1DIPC   GL212556  23.112  24.419   6.277  0.1302  0.2185  0.0370
    1DIPC   C1A12557  23.269  24.798   5.994  0.0403 -0.1031 -0.0763
    1DIPC   D2A12558  22.998  25.094   5.831  0.0779 -0.0603  0.1490
    1DIPC   D3A12559  22.565  25.264   5.803  0.2960  0.2335 -0.2017
    1DIPC   C4A12560  22.537  25.626   5.518 -0.0874  0.4421  0.2005
    1DIPC   C1B12561  23.559  24.364   6.150 -0.2883  0.0294 -0.0085
    1DIPC   D2B12562  23.536  24.129   5.714 -0.0993 -0.0639 -0.1626
    1DIPC   D3B12563  23.837  24.185   5.430  0.1337 -0.1106  0.3626
    1DIPC   C4B12564  23.948  24.128   5.009 -0.1945  0.2223 -0.0346
    1DIPC   NC312565  16.021   7.553   7.279  0.0289 -0.4709  0.0467
    1DIPC   PO412566  16.150   7.580   6.832  0.0346  0.0943  0.1510
    1DIPC   GL112567  16.164   7.493   6.440  0.1039 -0.0839  0.1733
    1DIPC   GL212568  16.538   7.404   6.235  0.1216 -0.2995 -0.0156
    1DIPC   C1A12569  16.120   7.737   6.046 -0.0897  0.0332  0.0495
    1DIPC   D2A12570  15.816   7.913   5.938 -0.0800 -0.0982 -0.1363
    1DIPC   D3A12571  15.629   7.975   5.611 -0.1852  0.1117  0.0547
    1DIPC   C4A12572  15.595   7.831   5.224  0.0624  0.1765 -0.1375
    1DIPC   C1B12573  16.243   7.249   5.859  0.2896  0.3404 -0.2383
    1DIPC   D2B12574  16.156   6.921   5.623  0.0379  0.3057 -0.0867
    1DIPC   D3B12575  16.061   6.820   5.298  0.0209  0.1363 -0.0571
    1DIPC   C4B12576  16.021   7.013   4.814  0.1831 -0.0788 -0.1002
    1DIPC   NC312577   8.701  19.296   6.469 -0.0018 -0.0287 -0.1733
    1DIPC   PO412578   8.893  19.719   6.232 -0.0103  0.4882  0.1667
    1DIPC   GL112579   8.734  19.583   5.900 -0.2056  0.0524  0.0194
    1DIPC   GL212580   8.435  19.603   5.906  0.1603 -0.1979 -0.1148
    1DIPC   C1A12581   8.577  19.582   5.387  0.0453 -0.0084 -0.2559
    1DIPC   D2A12582   8.506  19.934   5.135  0.3101 -0.2452 -0.0881
    1DIPC   D3A12583   8.036  19.705   5.057  0.0034 -0.2456 -0.0472
    1DIPC   C4A12584   7.692  19.675   4.812  0.3012 -0.3108 -0.3329
    1DIPC   C1B12585   8.373  19.156   5.847 -0.1108  0.0608  0.0010
    1DIPC   D2B12586   8.679  18.895   5.482 -0.1426 -0.0225 -0.4192
    1DIPC   D3B12587   8.531  18.673   5.075  0.2250  0.2424  0.3503
    1DIPC   C4B12588   8.635  18.335   4.825  0.0458  0.0233  0.0825
    1DIPC   NC312589  13.654  24.579   6.572 -0.2056 -0.2745 -0.0038
    1DIPC   PO412590  14.020  24.847   6.561 -0.2993 -0.0168  0.1516
    1DIPC   GL112591  13.993  24.744   6.075 -0.1956 -0.3416 -0.2853
    1DIPC   GL212592  14.203  24.670   5.785  0.1117 -0.3082  0.0549
    1DIPC   C1A12593  13.776  24.934   5.789  0.0695  0.3824 -0.2300
    1DIPC   D2A12594  13.587  24.821   5.374  0.0261  0.1341  0.0051
    1DIPC   D3A12595  13.619  24.655   4.936 -0.2231 -0.0549 -0.0554
    1DIPC   C4A12596  13.231  24.619   4.704  0.0138  0.1301  0.1164
    1DIPC   C1B12597  14.175  24.877   5.452  0.0106 -0.0693  0.2230
    1DIPC   D2B12598  14.014  24.981   5.029 -0.2471  0.1826 -0.1249
    1DIPC   D3B12599  14.296  25.131   4.754  0.0441  0.2078 -0.0249
    1DIPC   C4B12600  14.149  25.475   4.548 -0.2166 -0.4501 -0.0182
    1DIPC   NC312601  10.861   4.723   7.074  0.0879 -0.2182 -0.4004
    1DIPC   PO412602  10.468   4.556   7.027 -0.1299 -0.2874 -0.1309
    1DIPC   GL112603  10.505   4.427   6.676 -0.0343  0.2179  0.1663
    1DIPC   GL212604  10.313   4.105   6.683 -0.0497  0.0055  0.0608
    1DIPC   C1A12605  10.683   4.323   6.346 -0.1572  0.0468  0.0275
    1DIPC   D2A12606  10.855   4.499   6.095 -0.1123 -0.0781 -0.0492
    1DIPC   D3A12607  10.473   4.422   5.893 -0.0764  0.0884  0.1532
    1DIPC   C4A12608  10.371   4.613   5.594 -0.2800 -0.0888  0.1983
    1DIPC   C1B12609  10.305   4.003   6.313  0.0516  0.5141  0.1180
    1DIPC   D2B12610  10.267   3.926   5.871  0.0258 -0.2804 -0.1074
    1DIPC   D3B12611  10.095   3.574   5.685 -0.1197 -0.1690 -0.1725
    1DIPC   C4B12612  10.361   3.210   5.699  0.1693 -0.0200 -0.2486
    1DIPC   NC312613   5.820  26.216   6.733  0.1896 -0.0267 -0.2331
    1DIPC   PO412614   5.833  26.132   6.316 -0.1099  0.0767  0.0606
    1DIPC   GL112615   5.741  26.072   5.881  0.1449  0.0669  0.2641
    1DIPC   GL212616   5.482  25.871   5.641  0.1034 -0.0221  0.0820
    1DIPC   C1A12617   5.928  26.076   5.445 -0.0200 -0.1169 -0.1831
    1DIPC   D2A12618   6.223  26.302   5.177 -0.1189 -0.1004  0.2999
    1DIPC   D3A12619   6.195  26.029   4.796 -0.0174 -0.1094 -0.0401
    1DIPC   C4A12620   6.387  26.157   4.428 -0.1243  0.0362  0.0191
    1DIPC   C1B12621   5.503  26.406   5.617  0.0832  0.0475 -0.1644
    1DIPC   D2B12622   5.408  26.733   5.323 -0.3706 -0.2457 -0.1402
    1DIPC   D3B12623   5.819  26.614   5.049  0.0716  0.0283 -0.1041
    1DIPC   C4B12624   5.782  26.925   4.743  0.2573 -0.0845 -0.0101
    1DIPC   NC312625   0.575   9.156   6.522  0.1225 -0.0042 -0.2728
    1DIPC   PO412626   0.980   9.268   6.242  0.1216 -0.0611 -0.1720
    1DIPC   GL112627   0.926   9.213   5.789 -0.1195  0.0617 -0.1807
    1DIPC   GL212628   1.176   9.367   5.494 -0.0874 -0.1761  0.1078
    1DIPC   C1A12629   0.704   9.496   5.584  0.3104  0.0026  0.3114
    1DIPC   D2A12630   0.515   9.850   5.381  0.0121  0.0303  0.0524
    1DIPC   D3A12631   0.730   9.628   5.040  0.4069 -0.0337 -0.1562
    1DIPC   C4A12632   1.119   9.538   4.998 -0.1808  0.0382  0.0558
    1DIPC   C1B12633   1.114   9.816   5.497 -0.0707  0.0187 -0.0658
    1DIPC   D2B12634   0.846  10.177   5.566  0.1192 -0.0152 -0.1499
    1DIPC   D3B12635   1.064  10.663   5.626 -0.0992  0.3816  0.0106
    1DIPC   C4B12636   1.268  10.851   5.292 -0.1329  0.0062  0.0176
    1DIPC   NC312637   0.702  13.347   6.224  0.1026 -0.0493 -0.0220
    1DIPC   PO412638   0.499  13.585   6.002 -0.1418  0.1074  0.0653
    1DIPC   GL112639   0.636  13.562   5.538  0.3311 -0.0363 -0.2361
    1DIPC   GL212640   0.345  13.406   5.405  0.1570 -0.1285 -0.3258
    1DIPC   C1A12641   0.703  13.581   5.171  0.1812  0.3251 -0.3286
    1DIPC   D2A12642   0.738  13.931   4.876  0.0282  0.0958  0.3137
    1DIPC   D3A12643   0.803  14.269   5.098 -0.4250  0.2809 -0.2067
    1DIPC   C4A12644   0.921  14.713   4.948  0.3203 -0.1201  0.2888
    1DIPC   C1B12645   0.674  13.117   5.269  0.3867 -0.1363  0.0476
    1DIPC   D2B12646   0.844  12.781   5.520 -0.1517 -0.1523 -0.0964
    1DIPC   D3B12647   1.146  12.494   5.324 -0.0282  0.0288 -0.0291
    1DIPC   C4B12648   1.136  12.157   5.074 -0.1562 -0.1211  0.1252
    1DIPC   NC312649  10.226  24.049   6.391  0.0567 -0.0776  0.0342
    1DIPC   PO412650  10.035  24.334   6.215 -0.1752 -0.0549  0.0237
    1DIPC   GL112651  10.178  24.303   5.839 -0.1577 -0.1269  0.1561
    1DIPC   GL212652   9.941  24.399   5.572  0.0212 -0.0314  0.0291
    1DIPC   C1A12653  10.212  23.963   5.480  0.1519  0.2917 -0.1195
    1DIPC   D2A12654   9.915  24.058   5.116 -0.1329  0.0316 -0.4318
    1DIPC   D3A12655  10.204  23.771   4.813  0.0536 -0.1962 -0.1654
    1DIPC   C4A12656  10.246  23.496   5.059 -0.0742 -0.0152  0.0815
    1DIPC   C1B12657  10.273  24.615   5.418 -0.0129  0.1443  0.0152
    1DIPC   D2B12658  10.396  25.045   5.557 -0.0384  0.0231 -0.0648
    1DIPC   D3B12659  10.827  25.164   5.677 -0.0949 -0.1511 -0.2699
    1DIPC   C4B12660  11.246  25.051   5.503 -0.2689 -0.1840 -0.0555
    1DIPC   NC312661   0.273  29.409   6.756  0.0955  0.0025  0.2668
    1DIPC   PO412662   0.084  29.003   6.520 -0.1089  0.0239 -0.0112
    1DIPC   GL112663   0.179  28.833   6.111 -0.3403  0.0231  0.0499
    1DIPC   GL212664   0.159  29.125   5.901  0.0863  0.0186  0.4549
    1DIPC   C1A12665   0.413  28.620   5.730 -0.2284  0.0903  0.2086
    1DIPC   D2A12666   0.189  28.561   5.251 -0.0498 -0.1550 -0.0573
    1DIPC   D3A12667  -0.308  28.793   5.213 -0.0574 -0.1428  0.4778
    1DIPC   C4A12668  -0.736  28.931   4.883  0.3144  0.3284 -0.0684
    1DIPC   C1B12669   0.217  29.043   5.495  0.0895 -0.0024  0.3613
    1DIPC   D2B12670   0.595  29.201   5.105  0.3023 -0.2240 -0.1093
    1DIPC   D3B12671   0.219  28.978   4.916 -0.2476 -0.4427 -0.1226
    1DIPC   C4B12672  -0.149  29.167   4.983 -0.0547 -0.1329 -0.2371
    1DIPC   NC312673  28.530  10.225   5.894  0.0657 -0.1494 -0.0522
    1DIPC   PO412674  28.300  10.574   6.064  0.3302  0.0083 -0.0022
    1DIPC   GL112675  27.993  10.515   5.683  0.0115  0.0791 -0.1192
    1DIPC   GL212676  27.743  10.739   5.785  0.1368 -0.0937 -0.0628
    1DIPC   C1A12677  28.113  10.447   5.217 -0.0467  0.0090 -0.2504
    1DIPC   D2A12678  28.244  10.126   4.967 -0.3463  0.1436 -0.0068
    1DIPC   D3A12679  27.998   9.732   4.842 -0.3243  0.0265 -0.0104
    1DIPC   C4A12680  27.911   9.242   4.778 -0.2082 -0.0989 -0.1241
    1DIPC   C1B12681  27.585  11.094   5.481 -0.1857  0.0796 -0.0757
    1DIPC   D2B12682  27.194  11.405   5.309  0.1127 -0.0987  0.2219
    1DIPC   D3B12683  26.970  11.315   4.901 -0.0682 -0.1589 -0.1280
    1DIPC   C4B12684  27.177  11.208   4.439  0.1432 -0.1633 -0.0928
    1DIPC   NC312685  12.092   8.720   7.173  0.0717  0.4187 -0.1846
    1DIPC   PO412686  12.478   8.390   7.218 -0.1613  0.2349 -0.2008
    1DIPC   GL112687  12.626   8.591   6.821  0.1359  0.3393 -0.2699
    1DIPC   GL212688  12.369   8.882   6.781 -0.1684 -0.0245 -0.1715
    1DIPC   C1A12689  12.568   8.504   6.423  0.2765 -0.1792  0.2816
    1DIPC   D2A12690  12.851   8.418   6.049 -0.0669  0.2056  0.2068
    1DIPC   D3A12691  12.496   8.121   5.888 -0.1174 -0.2094  0.0685
    1DIPC   C4A12692  12.522   7.825   6.058  0.0116  0.1070  0.1292
    1DIPC   C1B12693  12.279   9.065   6.397  0.1782  0.2655 -0.2813
    1DIPC   D2B12694  12.171   9.036   5.932 -0.0162  0.0249 -0.0115
    1DIPC   D3B12695  12.319   8.995   5.484 -0.0500 -0.1646 -0.0580
    1DIPC   C4B12696  12.173   9.214   5.039  0.0012  0.1050  0.0398
    1DIPC   NC312697  11.133  22.475   6.226 -0.3520  0.0957 -0.0490
    1DIPC   PO412698  11.581  22.312   6.291 -0.3006 -0.0503 -0.3308
    1DIPC   GL112699  11.567  22.238   5.807  0.2068 -0.0545 -0.1553
    1DIPC   GL212700  11.764  21.957   5.803 -0.2250 -0.1365  0.0906
    1DIPC   C1A12701  11.477  22.279   5.484  0.0825 -0.1578 -0.1648
    1DIPC   D2A12702  11.367  22.042   5.104  0.2065 -0.0498 -0.0189
    1DIPC   D3A12703  11.467  22.419   4.781 -0.1861  0.2167 -0.0277
    1DIPC   C4A12704  11.306  22.361   4.410  0.0232 -0.0686 -0.2216
    1DIPC   C1B12705  11.632  21.748   5.397 -0.1155 -0.3073 -0.0106
    1DIPC   D2B12706  11.367  21.438   5.209  0.0782  0.0632 -0.0518
    1DIPC   D3B12707  11.694  21.607   4.853  0.1996  0.0981 -0.1074
    1DIPC   C4B12708  11.904  21.311   4.555  0.0417  0.0455  0.1876
    1DIPC   NC312709  15.212   4.316   6.324 -0.0354 -0.1848 -0.0827
    1DIPC   PO412710  15.597   4.688   6.464 -0.0118  0.1175  0.0118
    1DIPC   GL112711  15.358   4.754   6.024  0.2280 -0.0337 -0.0078
    1DIPC   GL212712  15.040   5.094   5.909 -0.3011 -0.0499 -0.0508
    1DIPC   C1A12713  15.489   4.658   5.709  0.0367  0.0541 -0.1114
    1DIPC   D2A12714  15.460   4.361   5.371  0.1170  0.0847  0.0290
    1DIPC   D3A12715  15.639   4.646   4.938  0.1000 -0.0024 -0.0612
    1DIPC   C4A12716  16.025   4.524   4.776 -0.0584  0.0271  0.2737
    1DIPC   C1B12717  14.992   4.938   5.506 -0.1084  0.1483  0.1193
    1DIPC   D2B12718  14.832   4.960   5.127  0.0993 -0.2037 -0.0342
    1DIPC   D3B12719  14.489   5.289   5.017  0.1448  0.1799 -0.2916
    1DIPC   C4B12720  14.479   5.757   5.187  0.0892  0.1700  0.0825
    1DIPC   NC312721  27.910   5.377   6.355  0.1525  0.0368  0.1448
    1DIPC   PO412722  27.685   5.052   6.519  0.1985  0.0699  0.3251
    1DIPC   GL112723  27.870   4.889   6.124 -0.0469  0.0462  0.1458
    1DIPC   GL212724  28.180   5.036   6.083 -0.2425 -0.1113  0.0167
    1DIPC   C1A12725  27.771   4.776   5.760  0.0630 -0.1369 -0.1040
    1DIPC   D2A12726  27.887   4.950   5.298 -0.3954 -0.0817  0.2058
    1DIPC   D3A12727  28.159   4.945   4.847 -0.0920  0.1734 -0.2605
    1DIPC   C4A12728  27.941   4.907   4.484 -0.1508 -0.1469  0.1928
    1DIPC   C1B12729  28.257   4.848   5.624  0.0849 -0.2265  0.1351
    1DIPC   D2B12730  28.429   4.727   5.219 -0.3471  0.0454 -0.1239
    1DIPC   D3B12731  28.284   4.357   5.029 -0.1371 -0.3095 -0.1994
    1DIPC   C4B12732  28.244   4.304   4.644  0.1686  0.1475 -0.0576
    1DIPC   NC312733  23.113  20.036   6.895  0.2470  0.1230 -0.1491
    1DIPC   PO412734  23.302  19.621   6.768  0.1383 -0.0578 -0.4040
    1DIPC   GL112735  23.413  19.822   6.428  0.1927 -0.2525  0.0393
    1DIPC   GL212736  23.205  20.042   6.438 -0.0978  0.0773  0.0612
    1DIPC   C1A12737  23.501  19.759   6.045 -0.0876  0.1412 -0.0785
    1DIPC   D2A12738  23.830  19.786   5.754  0.0342  0.2218 -0.0900
    1DIPC   D3A12739  23.557  19.888   5.389  0.1781 -0.3840 -0.1526
    1DIPC   C4A12740  23.172  19.727   5.150 -0.0326 -0.2835  0.0799
    1DIPC   C1B12741  23.140  20.079   6.049 -0.0245  0.0689 -0.0583
    1DIPC   D2B12742  23.111  19.740   5.665 -0.1147  0.0682 -0.2442
    1DIPC   D3B12743  22.714  19.654   5.539 -0.0563  0.2597 -0.0823
    1DIPC   C4B12744  22.597  19.640   5.059 -0.1361 -0.2329 -0.0516
    1DIPC   NC312745  25.852   0.829   6.797  0.2442 -0.1578  0.1360
    1DIPC   PO412746  26.259   1.064   6.619  0.0842  0.1576  0.0871
    1DIPC   GL112747  26.336   1.038   6.113 -0.1276  0.0383  0.4015
    1DIPC   GL212748  25.963   0.928   6.036  0.4836  0.2310  0.2846
    1DIPC   C1A12749  26.626   1.328   5.772  0.2474 -0.1547  0.2021
    1DIPC   D2A12750  26.578   1.703   5.632  0.1230 -0.0551 -0.0177
    1DIPC   D3A12751  26.228   1.622   5.266  0.0464 -0.1798  0.1759
    1DIPC   C4A12752  26.343   1.421   4.855 -0.1330  0.1342  0.0534
    1DIPC   C1B12753  25.638   0.889   5.817 -0.0266 -0.0085  0.2523
    1DIPC   D2B12754  25.561   0.931   5.421 -0.0924 -0.0937  0.2230
    1DIPC   D3B12755  25.424   0.563   5.324 -0.1373 -0.0165  0.0137
    1DIPC   C4B12756  25.591   0.283   5.027  0.0417 -0.0630 -0.3141
    1DIPC   NC312757  26.553   4.130   6.467  0.0605  0.0744  0.3352
    1DIPC   PO412758  26.184   3.876   6.485  0.0437 -0.5717 -0.0913
    1DIPC   GL112759  26.146   3.989   6.055  0.0028 -0.2686 -0.0147
    1DIPC   GL212760  25.885   3.795   5.909  0.0750 -0.2385 -0.3293
    1DIPC   C1A12761  26.373   3.929   5.723  0.1760  0.0655 -0.2148
    1DIPC   D2A12762  26.397   3.941   5.253  0.2485 -0.4851 -0.0531
    1DIPC   D3A12763  26.319   3.803   4.825  0.3013 -0.0193  0.0481
    1DIPC   C4A12764  26.056   4.118   4.551  0.1775 -0.1515 -0.2128
    1DIPC   C1B12765  25.578   3.999   5.610 -0.0865  0.0341  0.2235
    1DIPC   D2B12766  25.367   4.099   5.210 -0.0978 -0.0270  0.1013
    1DIPC   D3B12767  25.547   4.506   5.259  0.0719 -0.1362 -0.0918
    1DIPC   C4B12768  25.318   4.860   5.280 -0.0386  0.1395  0.0889
    1DIPC   NC312769   7.515  10.299   7.116 -0.0524 -0.0751 -0.2444
    1DIPC   PO412770   7.654   9.902   6.867  0.0298 -0.1749  0.2094
    1DIPC   GL112771   7.462   9.924   6.480 -0.0788  0.2011  0.3273
    1DIPC   GL212772   7.414   9.599   6.471 -0.0171 -0.2727 -0.0233
    1DIPC   C1A12773   7.508  10.122   6.130  0.1043 -0.0240 -0.1236
    1DIPC   D2A12774   7.594  10.494   5.862  0.0135 -0.2977 -0.1167
    1DIPC   D3A12775   7.155  10.547   5.916  0.2189 -0.1141  0.0193
    1DIPC   C4A12776   7.146  10.454   6.385  0.4273  0.0696  0.2330
    1DIPC   C1B12777   7.590   9.535   6.090  0.1264 -0.0740 -0.1255
    1DIPC   D2B12778   7.768   9.301   5.661 -0.3860  0.0464 -0.0190
    1DIPC   D3B12779   7.907   9.646   5.666  0.3380  0.0655  0.1385
    1DIPC   C4B12780   8.198   9.803   5.364 -0.1866  0.3094  0.0552
    1DIPC   NC312781  12.181   2.147   7.065 -0.1228 -0.1181 -0.1871
    1DIPC   PO412782  11.942   1.665   7.049 -0.0787  0.0846  0.1253
    1DIPC   GL112783  11.858   1.796   6.556  0.0184  0.1373 -0.1892
    1DIPC   GL212784  12.012   1.533   6.342 -0.2071 -0.2660  0.1152
    1DIPC   C1A12785  11.945   2.103   6.280 -0.1758 -0.2041 -0.0914
    1DIPC   D2A12786  11.987   2.250   5.854  0.1723 -0.2980  0.0097
    1DIPC   D3A12787  11.821   1.992   5.537  0.0265  0.0659  0.1031
    1DIPC   C4A12788  11.599   2.222   5.339 -0.0432  0.2115  0.0602
    1DIPC   C1B12789  12.227   1.366   5.915  0.1658  0.2425 -0.2605
    1DIPC   D2B12790  12.590   1.378   5.791 -0.0297  0.0869  0.1245
    1DIPC   D3B12791  12.717   1.836   5.738  0.1162 -0.1011 -0.3690
    1DIPC   C4B12792  12.998   1.880   6.099  0.0053 -0.1682 -0.0307
    1DIPC   NC312793   4.548   6.324   6.732  0.1899 -0.0748  0.1110
    1DIPC   PO412794   4.970   6.360   6.548  0.0364 -0.2360 -0.1608
    1DIPC   GL112795   5.120   6.469   6.182 -0.0365  0.1898  0.0489
    1DIPC   GL212796   5.401   6.613   6.318 -0.0520  0.1447  0.0115
    1DIPC   C1A12797   5.076   6.332   5.875 -0.1328 -0.0207  0.1906
    1DIPC   D2A12798   5.343   6.339   5.406  0.0926  0.1475  0.2353
    1DIPC   D3A12799   5.617   6.728   5.422 -0.0723  0.3070  0.0896
    1DIPC   C4A12800   5.435   6.794   5.743  0.1724 -0.6614 -0.2514
    1DIPC   C1B12801   4.984   6.905   6.218  0.2784 -0.0534 -0.0595
    1DIPC   D2B12802   4.674   7.198   6.370  0.1372 -0.0082  0.0739
    1DIPC   D3B12803   4.800   7.109   5.829  0.0818 -0.1696 -0.0778
    1DIPC   C4B12804   4.942   6.784   5.699 -0.3040 -0.0411  0.1380
    1DIPC   NC312805  29.364   8.830   6.888  0.2716 -0.3913  0.0302
    1DIPC   PO412806  29.342   8.572   6.501 -0.2194  0.0533  0.0010
    1DIPC   GL112807  29.311   8.815   6.104 -0.2432 -0.0312  0.0866
    1DIPC   GL212808  29.420   9.123   6.021 -0.0640  0.2750  0.0867
    1DIPC   C1A12809  29.492   8.739   5.627 -0.4069 -0.1390 -0.0199
    1DIPC   D2A12810  29.351   8.516   5.205  0.1066 -0.2745  0.1543
    1DIPC   D3A12811  29.577   8.624   4.882  0.0042 -0.0399 -0.2255
    1DIPC   C4A12812  29.841   8.432   4.557  0.0927 -0.0197 -0.1168
    1DIPC   C1B12813  29.446   9.553   5.739  0.1226  0.0680  0.1257
    1DIPC   D2B12814  29.377   9.973   5.558  0.1573 -0.0300  0.2170
    1DIPC   D3B12815  29.433   9.639   5.251  0.2226 -0.1927  0.1405
    1DIPC   C4B12816  29.655   9.907   4.917 -0.0591  0.2885 -0.0022
    1DIPC   NC312817   3.721  13.980   6.106  0.1030 -0.0345  0.0917
    1DIPC   PO412818   3.740  14.363   6.052 -0.0366  0.2619 -0.1355
    1DIPC   GL112819   3.970  14.364   5.642  0.1885  0.0848 -0.0017
    1DIPC   GL212820   4.254  14.570   5.509  0.0108 -0.3698  0.0468
    1DIPC   C1A12821   3.782  14.216   5.154  0.2011  0.2610 -0.0141
    1DIPC   D2A12822   3.535  14.363   4.809  0.2190 -0.2940  0.2362
    1DIPC   D3A12823   3.331  14.025   4.931  0.1268 -0.1969 -0.0605
    1DIPC   C4A12824   3.125  13.902   4.585 -0.0435 -0.1159  0.1785
    1DIPC   C1B12825   4.093  14.572   5.062  0.1369  0.2721  0.2436
    1DIPC   D2B12826   4.041  14.453   4.654 -0.0715  0.1757  0.0023
    1DIPC   D3B12827   4.315  14.572   4.250  0.1732 -0.0541  0.3240
    1DIPC   C4B12828   4.634  14.856   4.308 -0.1343  0.1519  0.2050
    1DIPC   NC312829   7.808  27.385   7.268  0.2602  0.0183  0.1064
    1DIPC   PO412830   7.479  27.357   6.891  0.0258 -0.1872 -0.2390
    1DIPC   GL112831   7.279  27.513   6.455 -0.0817  0.0232  0.0576
    1DIPC   GL212832   7.167  27.703   6.328  0.1291 -0.2222  0.1222
    1DIPC   C1A12833   7.370  27.306   5.999 -0.0273 -0.2774 -0.2809
    1DIPC   D2A12834   7.229  27.180   5.538 -0.2353  0.1373  0.0150
    1DIPC   D3A12835   7.133  27.494   5.167 -0.0409 -0.1776 -0.1399
    1DIPC   C4A12836   6.683  27.485   4.992 -0.0840  0.1468 -0.1909
    1DIPC   C1B12837   7.045  27.977   5.991  0.1726 -0.2789 -0.1419
    1DIPC   D2B12838   7.210  28.121   5.560  0.0510  0.0383 -0.1620
    1DIPC   D3B12839   6.924  27.993   5.206 -0.1229 -0.3041  0.0595
    1DIPC   C4B12840   7.160  27.896   4.777 -0.1100 -0.1252  0.2138
    1DIPC   NC312841  25.891  11.991   5.832 -0.5089 -0.0511 -0.1231
    1DIPC   PO412842  25.770  12.329   5.820 -0.2590 -0.2220 -0.1831
    1DIPC   GL112843  25.707  12.112   5.382  0.1478  0.1777  0.1169
    1DIPC   GL212844  25.994  12.002   5.237  0.1317 -0.0958 -0.5612
    1DIPC   C1A12845  25.710  12.173   4.868 -0.0235  0.0865 -0.0445
    1DIPC   D2A12846  25.559  11.971   4.515 -0.2527  0.2158 -0.0888
    1DIPC   D3A12847  25.750  12.337   4.326 -0.1003  0.1779  0.2634
    1DIPC   C4A12848  25.509  12.564   4.040  0.0278 -0.0402  0.0088
    1DIPC   C1B12849  25.797  11.640   5.000  0.0567 -0.1972  0.0272
    1DIPC   D2B12850  25.901  11.665   4.588  0.2103  0.1013 -0.0099
    1DIPC   D3B12851  26.199  12.007   4.673 -0.1345 -0.0076  0.2087
    1DIPC   C4B12852  26.590  12.125   4.781  0.0904 -0.1644 -0.1057
    1DIPC   NC312853   6.054   6.277   6.946  0.3588 -0.1997  0.2093
    1DIPC   PO412854   5.717   6.632   6.949 -0.0836 -0.0674  0.1555
    1DIPC   GL112855   5.806   6.403   6.508  0.1624  0.1191 -0.0554
    1DIPC   GL212856   5.842   6.759   6.429  0.1680 -0.0545 -0.0629
    1DIPC   C1A12857   6.059   6.279   6.105 -0.0168 -0.0240 -0.0712
    1DIPC   D2A12858   6.404   6.274   5.846  0.0688 -0.3999  0.0612
    1DIPC   D3A12859   6.140   6.110   5.598  0.0781 -0.0086 -0.5037
    1DIPC   C4A12860   6.315   5.783   5.350  0.0020 -0.2846  0.0649
    1DIPC   C1B12861   6.000   6.826   6.029  0.0150 -0.0848 -0.1222
    1DIPC   D2B12862   5.924   7.117   5.659 -0.2194  0.0024 -0.1174
    1DIPC   D3B12863   6.215   7.150   5.465  0.3788  0.1430 -0.2571
    1DIPC   C4B12864   6.289   7.526   5.430 -0.0135  0.0081  0.0490
    1DIPC   NC312865   4.558  12.032   6.288 -0.0676 -0.2140 -0.0078
    1DIPC   PO412866   4.126  12.104   6.438  0.1784 -0.0707 -0.0009
    1DIPC   GL112867   4.004  11.983   6.028 -0.3737  0.0778 -0.0959
    1DIPC   GL212868   3.703  12.064   5.960  0.2859 -0.1514  0.1850
    1DIPC   C1A12869   3.879  11.664   5.720 -0.2353 -0.1035 -0.0847
    1DIPC   D2A12870   3.462  11.457   5.658  0.1026 -0.0517  0.2820
    1DIPC   D3A12871   3.251  11.839   5.826 -0.1467 -0.0287 -0.2265
    1DIPC   C4A12872   3.301  12.306   5.689  0.0492  0.0840 -0.0167
    1DIPC   C1B12873   3.771  12.123   5.479  0.1298 -0.1771  0.2525
    1DIPC   D2B12874   3.994  12.257   5.055 -0.0494 -0.2135  0.2018
    1DIPC   D3B12875   3.711  12.500   5.134 -0.0361 -0.3102  0.3839
    1DIPC   C4B12876   3.483  12.689   4.831 -0.2174  0.0597  0.1972
    1DIPC   NC312877   2.337  12.737   6.510  0.1500  0.1289  0.2235
    1DIPC   PO412878   2.572  12.488   6.174  0.3696  0.3272  0.3195
    1DIPC   GL112879   2.612  12.503   5.745 -0.0393 -0.3275  0.0498
    1DIPC   GL212880   2.829  12.630   5.465 -0.1127 -0.2257 -0.1731
    1DIPC   C1A12881   2.422  12.186   5.434  0.1529 -0.1517 -0.2982
    1DIPC   D2A12882   2.479  11.648   5.516 -0.1475  0.1985 -0.0833
    1DIPC   D3A12883   2.830  11.895   5.563  0.0818  0.1862  0.2836
    1DIPC   C4A12884   2.913  12.184   5.296 -0.0743 -0.2417 -0.0151
    1DIPC   C1B12885   2.524  12.532   5.050 -0.1202  0.1362  0.3411
    1DIPC   D2B12886   2.312  12.490   4.601 -0.2453 -0.0550  0.1841
    1DIPC   D3B12887   2.065  12.767   4.499  0.3661  0.1455 -0.0380
    1DIPC   C4B12888   1.680  12.802   4.682  0.0443 -0.0812  0.0259
    1DIPC   NC312889   7.192  18.398   5.981  0.0924  0.1157  0.2395
    1DIPC   PO412890   7.477  18.665   6.036 -0.0166 -0.1196  0.0132
    1DIPC   GL112891   7.488  18.422   5.570 -0.2181  0.1751 -0.2114
    1DIPC   GL212892   7.278  18.474   5.463  0.0961 -0.0487  0.2624
    1DIPC   C1A12893   7.823  18.466   5.307  0.3541 -0.0333 -0.2183
    1DIPC   D2A12894   8.148  18.269   4.931 -0.0508  0.1059  0.0927
    1DIPC   D3A12895   8.224  18.545   4.533 -0.1939  0.3130 -0.1750
    1DIPC   C4A12896   7.948  18.970   4.346 -0.0901 -0.2809  0.0539
    1DIPC   C1B12897   7.254  18.366   5.109 -0.0940  0.1660 -0.0249
    1DIPC   D2B12898   7.613  18.364   4.703 -0.1348 -0.0047 -0.0335
    1DIPC   D3B12899   7.753  18.081   4.383 -0.0510  0.2195 -0.2403
    1DIPC   C4B12900   7.882  18.364   4.176  0.1741 -0.1013  0.0496
    1DIPC   NC312901   9.606   8.870   7.571 -0.5181 -0.1167  0.1707
    1DIPC   PO412902   9.141   9.006   7.563  0.1857  0.0880  0.0090
    1DIPC   GL112903   8.934   9.225   7.194 -0.2165 -0.0724  0.2407
    1DIPC   GL212904   9.136   9.040   7.010  0.0933  0.0957  0.2739
    1DIPC   C1A12905   9.211   9.517   7.010 -0.1565 -0.2934 -0.1149
    1DIPC   D2A12906   9.540   9.591   6.703 -0.1188  0.2032  0.0772
    1DIPC   D3A12907   9.798   9.328   6.452  0.4168  0.1897  0.6461
    1DIPC   C4A12908   9.721   9.310   5.984  0.2692 -0.0523 -0.0802
    1DIPC   C1B12909   8.859   8.972   6.541 -0.0368 -0.1836  0.0661
    1DIPC   D2B12910   8.906   8.852   6.175  0.0770 -0.0627  0.1130
    1DIPC   D3B12911   9.020   9.136   5.800  0.2587  0.3779 -0.5358
    1DIPC   C4B12912   9.284   9.512   5.738 -0.0743 -0.0795  0.0340
    1DIPC   NC312913  22.666  19.159   6.696  0.0620  0.0760  0.1758
    1DIPC   PO412914  22.310  19.524   6.617 -0.0939 -0.0624  0.0224
    1DIPC   GL112915  22.454  19.475   6.249 -0.1054 -0.0468 -0.0365
    1DIPC   GL212916  22.662  19.231   6.192 -0.1128 -0.2380  0.1435
    1DIPC   C1A12917  22.718  19.778   6.009 -0.2163  0.0293 -0.2629
    1DIPC   D2A12918  22.654  20.160   5.885 -0.0671 -0.3961 -0.2990
    1DIPC   D3A12919  22.740  20.437   6.126  0.1304  0.1494 -0.0559
    1DIPC   C4A12920  22.795  20.809   5.977  0.0946  0.1036  0.0623
    1DIPC   C1B12921  22.904  18.889   5.989  0.1851 -0.4553 -0.2579
    1DIPC   D2B12922  23.104  18.646   5.637  0.0061  0.0310 -0.3750
    1DIPC   D3B12923  23.391  18.875   5.404  0.1115  0.0201  0.2967
    1DIPC   C4B12924  23.754  18.867   5.139 -0.3820  0.0705 -0.1665
    1DIPC   NC312925  27.639   9.159   6.179  0.3668 -0.1164  0.0416
    1DIPC   PO412926  27.323   9.481   6.329  0.0036 -0.0072  0.2304
    1DIPC   GL112927  27.642   9.593   5.928 -0.1183 -0.3856  0.1293
    1DIPC   GL212928  27.386   9.695   5.760  0.0157  0.0785  0.3292
    1DIPC   C1A12929  27.950   9.543   5.667 -0.0081  0.2068 -0.2168
    1DIPC   D2A12930  28.152   9.914   5.417  0.1964  0.1325  0.1343
    1DIPC   D3A12931  28.473   9.637   5.164  0.0094  0.0081 -0.2661
    1DIPC   C4A12932  28.377   9.466   4.828 -0.0469 -0.3332 -0.3760
    1DIPC   C1B12933  27.128   9.415   5.443 -0.2912 -0.0888 -0.2024
    1DIPC   D2B12934  26.652   9.263   5.366  0.4408 -0.0445  0.2057
    1DIPC   D3B12935  26.504   9.215   4.931 -0.1097  0.0664 -0.0231
    1DIPC   C4B12936  26.650   9.334   4.554 -0.1638  0.1730 -0.4368
    1DIPC   NC312937   0.776  19.326   6.068 -0.1126 -0.1477 -0.1436
    1DIPC   PO412938   1.103  19.670   5.995  0.1636 -0.0079  0.4394
    1DIPC   GL112939   1.165  19.662   5.574  0.2190  0.1039  0.3144
    1DIPC   GL212940   1.173  19.944   5.454  0.2045 -0.1765 -0.2982
    1DIPC   C1A12941   1.155  19.355   5.109  0.0905  0.0422  0.1874
    1DIPC   D2A12942   0.772  19.075   4.885  0.3630  0.1584  0.1180
    1DIPC   D3A12943   0.508  19.196   4.689 -0.0760  0.0034  0.0409
    1DIPC   C4A12944   0.392  19.565   4.500 -0.0772  0.1788 -0.2994
    1DIPC   C1B12945   0.751  19.774   5.322 -0.2779 -0.1555  0.0747
    1DIPC   D2B12946   0.695  19.682   4.864 -0.2002 -0.1860  0.1418
    1DIPC   D3B12947   0.777  20.064   4.650  0.0315  0.3192 -0.0438
    1DIPC   C4B12948   0.405  20.152   4.405  0.0283 -0.2990 -0.0820
    1DIPC   NC312949   6.953  20.511   5.830  0.1269  0.2477 -0.2381
    1DIPC   PO412950   7.257  20.857   5.744  0.2623 -0.4987  0.0640
    1DIPC   GL112951   7.397  20.745   5.409  0.0325 -0.0369 -0.0285
    1DIPC   GL212952   7.173  20.620   5.213 -0.0782  0.1809  0.2229
    1DIPC   C1A12953   7.665  20.677   5.132 -0.2383 -0.2406  0.0559
    1DIPC   D2A12954   7.914  20.740   4.806 -0.1691 -0.0686  0.0531
    1DIPC   D3A12955   7.981  21.103   5.112 -0.0568  0.2056  0.1674
    1DIPC   C4A12956   7.774  21.096   5.373 -0.0070 -0.1342  0.3298
    1DIPC   C1B12957   7.409  20.540   4.783  0.1176 -0.0271  0.2778
    1DIPC   D2B12958   7.651  20.583   4.379 -0.1835 -0.0622 -0.0569
    1DIPC   D3B12959   7.517  20.098   4.367  0.1399  0.2887 -0.0175
    1DIPC   C4B12960   7.326  20.050   4.034 -0.2432 -0.1137  0.0142
    1DIPC   NC312961  24.009   3.645   7.088  0.4256  0.0275  0.3803
    1DIPC   PO412962  23.742   3.378   7.258  0.2425  0.0419 -0.0435
    1DIPC   GL112963  23.668   3.325   6.796  0.1969 -0.1147 -0.0922
    1DIPC   GL212964  23.893   3.474   6.602 -0.1060  0.0683  0.0572
    1DIPC   C1A12965  23.720   3.145   6.314  0.0828 -0.2045 -0.0900
    1DIPC   D2A12966  23.989   2.932   6.197 -0.0402 -0.2226 -0.1087
    1DIPC   D3A12967  24.388   2.921   6.206  0.1105  0.0991 -0.0005
    1DIPC   C4A12968  24.463   2.642   6.507  0.1901  0.0231  0.1689
    1DIPC   C1B12969  23.654   3.635   6.322  0.0844  0.0193 -0.0676
    1DIPC   D2B12970  23.619   3.819   5.906 -0.1543  0.1749 -0.1127
    1DIPC   D3B12971  23.403   3.384   5.928  0.0167 -0.1525  0.1846
    1DIPC   C4B12972  23.664   3.114   5.752 -0.2445 -0.0968 -0.1710
    1DIPC   NC312973  12.139   8.033   7.201 -0.0961  0.0191  0.0479
    1DIPC   PO412974  11.866   8.302   6.962 -0.2603 -0.2646 -0.1669
    1DIPC   GL112975  11.983   8.511   6.659  0.0258 -0.1754  0.0951
    1DIPC   GL212976  11.839   8.823   6.744  0.1941  0.0459 -0.0097
    1DIPC   C1A12977  12.095   8.640   6.210 -0.3509  0.1886  0.4103
    1DIPC   D2A12978  12.344   8.570   5.916  0.0063 -0.0222  0.0076
    1DIPC   D3A12979  12.392   8.353   5.504  0.2335 -0.0837 -0.0095
    1DIPC   C4A12980  12.509   7.944   5.457  0.1855 -0.0725  0.0740
    1DIPC   C1B12981  11.715   8.971   6.348  0.1486 -0.1393 -0.0409
    1DIPC   D2B12982  11.651   9.035   5.904  0.1651  0.0561 -0.1150
    1DIPC   D3B12983  11.885   8.760   5.650  0.0100 -0.2656 -0.5969
    1DIPC   C4B12984  11.751   8.748   5.241  0.2163 -0.0046 -0.0016
    1DIPC   NC312985  19.564   2.513   7.542 -0.0763  0.1821 -0.1643
    1DIPC   PO412986  19.518   2.472   7.117 -0.1528  0.0852  0.2740
    1DIPC   GL112987  19.532   2.495   6.641 -0.3868  0.3467  0.3020
    1DIPC   GL212988  19.857   2.318   6.523 -0.1066 -0.0205 -0.0339
    1DIPC   C1A12989  19.451   2.129   6.435 -0.0347  0.1303  0.1041
    1DIPC   D2A12990  19.486   1.749   6.300  0.2871  0.1628 -0.2545
    1DIPC   D3A12991  19.117   1.751   6.381 -0.0154  0.0709 -0.1224
    1DIPC   C4A12992  18.850   2.047   6.173  0.1504 -0.2194 -0.0489
    1DIPC   C1B12993  19.700   2.381   6.074 -0.1950  0.1201  0.0853
    1DIPC   D2B12994  19.708   2.715   5.965  0.0328  0.0720 -0.2214
    1DIPC   D3B12995  19.281   2.666   6.155 -0.1132 -0.0019 -0.2244
    1DIPC   C4B12996  18.891   2.589   5.915 -0.1499  0.0291  0.2377
    1DIPC   NC312997  29.335  27.491   7.103 -0.0633  0.3199 -0.1580
    1DIPC   PO412998  29.394  27.790   6.794 -0.0350  0.0060 -0.0397
    1DIPC   GL112999  29.423  28.079   6.459  0.0896 -0.0694 -0.3185
    1DIPC   GL213000  29.610  28.047   6.130 -0.0263  0.1032 -0.1821
    1DIPC   C1A13001  29.307  28.467   6.065  0.0874 -0.1810  0.1719
    1DIPC   D2A13002  29.210  28.826   5.797 -0.0340 -0.1702 -0.0672
    1DIPC   D3A13003  29.432  29.082   5.572  0.5346 -0.0018 -0.0544
    1DIPC   C4A13004  29.249  29.309   5.183 -0.0164 -0.2739  0.1750
    1DIPC   C1B13005  29.973  28.326   6.065  0.0710  0.0402 -0.0808
    1DIPC   D2B13006  30.373  28.518   6.184  0.1428  0.0512  0.1620
    1DIPC   D3B13007  30.554  28.865   6.088 -0.0994 -0.3860 -0.0401
    1DIPC   C4B13008  30.446  29.262   5.891 -0.3992  0.0294 -0.0777
    1DIPC   NC313009   2.647  10.677   6.728  0.1160 -0.0389  0.3261
    1DIPC   PO413010   2.606  10.203   6.671 -0.3373  0.0789  0.2377
    1DIPC   GL113011   2.867  10.318   6.285  0.2097  0.1020  0.0344
    1DIPC   GL213012   3.207  10.316   6.311 -0.0040 -0.3590 -0.0180
    1DIPC   C1A13013   2.960  10.377   5.869 -0.2831  0.0615  0.2942
    1DIPC   D2A13014   3.027  10.062   5.530 -0.0307 -0.0910 -0.1454
    1DIPC   D3A13015   2.723  10.013   5.218 -0.0627  0.0962  0.3238
    1DIPC   C4A13016   2.330   9.927   5.325 -0.0511  0.0856  0.2501
    1DIPC   C1B13017   3.367  10.092   5.876 -0.3474  0.1681  0.0869
    1DIPC   D2B13018   3.450  10.052   5.324 -0.1767 -0.2111  0.1382
    1DIPC   D3B13019   3.461  10.447   4.996  0.0647 -0.1919 -0.4561
    1DIPC   C4B13020   3.730  10.623   5.116 -0.0098  0.0373  0.2971
    1DIPC   NC313021  12.378   3.200   7.123 -0.1192  0.0391 -0.0231
    1DIPC   PO413022  12.541   2.735   6.946 -0.0391 -0.2447 -0.2114
    1DIPC   GL113023  12.444   2.974   6.637 -0.1550 -0.0478 -0.3247
    1DIPC   GL213024  12.650   3.028   6.370 -0.2271  0.0890 -0.0052
    1DIPC   C1A13025  12.112   3.011   6.311  0.1209 -0.1609 -0.2964
    1DIPC   D2A13026  12.011   3.106   5.894  0.0047  0.0078 -0.0485
    1DIPC   D3A13027  11.955   3.435   6.135  0.1956  0.0293  0.0709
    1DIPC   C4A13028  11.646   3.182   6.416 -0.1312  0.2716 -0.1873
    1DIPC   C1B13029  12.528   3.228   5.984  0.3678 -0.2030  0.2840
    1DIPC   D2B13030  12.609   3.114   5.528 -0.1221 -0.0058 -0.0568
    1DIPC   D3B13031  12.794   2.752   5.385  0.0237  0.1972  0.0847
    1DIPC   C4B13032  12.594   2.515   5.096 -0.1403 -0.0006  0.4566
    1DIPC   NC313033  26.203  14.629   5.802  0.3168 -0.0453  0.1084
    1DIPC   PO413034  25.829  14.393   5.936  0.1860  0.0022  0.0753
    1DIPC   GL113035  25.518  14.431   5.652  0.1287 -0.1494  0.0251
    1DIPC   GL213036  25.220  14.414   5.702  0.0255  0.0389 -0.0595
    1DIPC   C1A13037  25.539  14.388   5.166 -0.1505 -0.1119  0.2077
    1DIPC   D2A13038  25.359  14.296   4.748  0.0664  0.0850  0.1712
    1DIPC   D3A13039  25.425  14.221   4.375 -0.2740 -0.0345 -0.0332
    1DIPC   C4A13040  25.109  14.445   4.047  0.0985 -0.2527  0.1652
    1DIPC   C1B13041  25.249  14.727   5.400 -0.0530  0.1852  0.3171
    1DIPC   D2B13042  25.098  14.987   5.145 -0.1501 -0.0239 -0.1355
    1DIPC   D3B13043  24.970  14.646   4.971  0.0827 -0.0719  0.0597
    1DIPC   C4B13044  25.011  14.270   5.193  0.0631 -0.1680  0.4770
    1DIPC   NC313045  26.054  10.992   6.112 -0.0423  0.0716  0.0163
    1DIPC   PO413046  25.933  10.639   6.075 -0.0787 -0.0660  0.0187
    1DIPC   GL113047  26.164  10.592   5.703  0.3518  0.1140  0.0865
    1DIPC   GL213048  26.112  10.899   5.565  0.3234 -0.2734 -0.1229
    1DIPC   C1A13049  26.238  10.442   5.339  0.0079  0.2215  0.1709
    1DIPC   D2A13050  25.965  10.399   5.112 -0.1589  0.3522 -0.3409
    1DIPC   D3A13051  26.178  10.696   4.892  0.1963  0.0850  0.2332
    1DIPC   C4A13052  26.655  10.606   4.978  0.2368  0.0839  0.0211
    1DIPC   C1B13053  26.518  10.871   5.433 -0.0950 -0.2161  0.0589
    1DIPC   D2B13054  26.690  11.290   5.385  0.0567  0.1140  0.5590
    1DIPC   D3B13055  26.538  11.142   4.965 -0.2158 -0.0624 -0.0766
    1DIPC   C4B13056  26.639  11.065   4.564  0.0408 -0.0281 -0.0801
    1DIPC   NC313057   1.617  18.382   6.485  0.2592  0.0334 -0.0675
    1DIPC   PO413058   1.266  18.555   6.304 -0.1348  0.1895 -0.3081
    1DIPC   GL113059   1.182  18.786   5.929 -0.1681 -0.1426  0.1801
    1DIPC   GL213060   1.414  18.623   5.643 -0.0901  0.2005 -0.0196
    1DIPC   C1A13061   1.347  19.112   5.618  0.1050  0.0375 -0.1773
    1DIPC   D2A13062   1.554  19.015   5.204  0.1881 -0.0902 -0.0834
    1DIPC   D3A13063   1.591  18.651   5.070  0.0532 -0.0219  0.1166
    1DIPC   C4A13064   1.955  18.594   4.761 -0.0173 -0.2241  0.1621
    1DIPC   C1B13065   1.820  18.559   5.514 -0.2556 -0.3930 -0.3001
    1DIPC   D2B13066   2.045  18.877   5.292 -0.2210 -0.2269 -0.0707
    1DIPC   D3B13067   1.998  19.073   4.935  0.3681  0.1774 -0.1688
    1DIPC   C4B13068   2.290  18.984   4.541 -0.0089 -0.0120 -0.2151
    1DIPC   NC313069   9.453  29.233   7.064  0.0496 -0.3054  0.0107
    1DIPC   PO413070   9.119  29.050   7.062 -0.0325 -0.0135 -0.0574
    1DIPC   GL113071   9.110  28.990   6.686  0.0149 -0.2852 -0.0696
    1DIPC   GL213072   8.849  29.132   6.513 -0.4626  0.0544  0.0385
    1DIPC   C1A13073   9.130  28.711   6.490 -0.3626  0.2489  0.2021
    1DIPC   D2A13074   8.878  28.474   6.216  0.0668  0.3078 -0.1024
    1DIPC   D3A13075   8.949  28.040   6.214 -0.0876  0.1349 -0.2478
    1DIPC   C4A13076   9.045  28.148   5.831 -0.0967 -0.3335  0.0092
    1DIPC   C1B13077   8.592  28.814   6.482  0.0224  0.1402  0.1735
    1DIPC   D2B13078   8.299  28.575   6.239 -0.0171  0.0863 -0.3054
    1DIPC   D3B13079   8.565  28.833   5.977  0.1961 -0.2292  0.2582
    1DIPC   C4B13080   8.484  28.930   5.522 -0.0348  0.1364 -0.2199
    1DIPC   NC313081  17.534  25.350   6.921  0.1030 -0.0983  0.0479
    1DIPC   PO413082  17.966  25.244   6.806 -0.1329 -0.0440  0.0958
    1DIPC   GL113083  18.122  25.330   6.396 -0.0390  0.2054  0.0599
    1DIPC   GL213084  18.406  25.311   6.538  0.1404  0.0200 -0.1669
    1DIPC   C1A13085  18.001  25.408   5.992 -0.0705 -0.0929 -0.1524
    1DIPC   D2A13086  18.132  25.471   5.618 -0.0346 -0.1992  0.0405
    1DIPC   D3A13087  17.721  25.276   5.463 -0.0769 -0.0973 -0.2423
    1DIPC   C4A13088  17.878  24.985   5.068 -0.0292 -0.1867 -0.0729
    1DIPC   C1B13089  18.378  24.958   6.249  0.0022  0.1806 -0.1866
    1DIPC   D2B13090  18.559  24.623   6.076 -0.0033 -0.0163  0.1869
    1DIPC   D3B13091  18.656  24.957   5.798  0.2487  0.1194  0.2722
    1DIPC   C4B13092  18.569  25.413   5.959 -0.0259 -0.2146  0.1082
    1DIPC   NC313093  25.935  28.287   6.875 -0.1143  0.0026  0.0340
    1DIPC   PO413094  25.865  28.632   6.896 -0.0068  0.0655  0.0937
    1DIPC   GL113095  25.739  28.717   6.556  0.0164 -0.2124  0.0420
    1DIPC   GL213096  25.791  29.011   6.416  0.3556  0.0288  0.0428
    1DIPC   C1A13097  25.869  28.585   6.154  0.2676 -0.0366  0.0960
    1DIPC   D2A13098  25.862  28.466   5.695 -0.0486 -0.2498  0.0263
    1DIPC   D3A13099  26.103  28.716   5.420  0.0511  0.2180 -0.1140
    1DIPC   C4A13100  26.278  28.521   5.079  0.2879  0.0634  0.1531
    1DIPC   C1B13101  25.599  28.915   5.943  0.2294  0.1784  0.1434
    1DIPC   D2B13102  25.387  28.533   5.889  0.0263  0.1548  0.1410
    1DIPC   D3B13103  25.228  28.339   6.170 -0.1232 -0.1648 -0.0557
    1DIPC   C4B13104  24.789  28.319   6.021 -0.0504 -0.0047  0.0292
    1DIPC   NC313105   2.094  22.948   5.773 -0.0461 -0.3856  0.0007
    1DIPC   PO413106   2.457  23.115   5.519 -0.1067 -0.0786  0.0771
    1DIPC   GL113107   2.286  22.745   5.306  0.0594  0.2829 -0.3772
    1DIPC   GL213108   2.464  22.640   4.997  0.1412  0.1446  0.1915
    1DIPC   C1A13109   1.975  22.668   4.987  0.0666 -0.0969  0.2782
    1DIPC   D2A13110   1.784  22.704   4.573  0.2506  0.2461 -0.1449
    1DIPC   D3A13111   2.040  23.011   4.297 -0.0777  0.0964 -0.1736
    1DIPC   C4A13112   2.034  22.892   3.792  0.3061 -0.2028 -0.1191
    1DIPC   C1B13113   2.302  22.570   4.570 -0.0627 -0.3697  0.0151
    1DIPC   D2B13114   2.445  22.124   4.344 -0.2609  0.0310  0.1743
    1DIPC   D3B13115   2.588  22.419   4.060 -0.2948  0.2690 -0.1277
    1DIPC   C4B13116   2.418  22.488   3.659  0.1796 -0.1497  0.2460
    1DIPC   NC313117  25.044   6.290   6.636  0.1666 -0.0885  0.0460
    1DIPC   PO413118  24.988   5.893   6.466 -0.0619  0.0269  0.0229
    1DIPC   GL113119  24.966   5.561   6.233 -0.0652 -0.1219  0.1674
    1DIPC   GL213120  24.940   5.339   6.393  0.0652 -0.2414  0.0474
    1DIPC   C1A13121  24.994   5.537   5.828 -0.1522 -0.0188  0.2811
    1DIPC   D2A13122  24.605   5.345   5.688  0.0477 -0.0845 -0.3312
    1DIPC   D3A13123  24.565   5.517   5.329  0.1911  0.0500  0.0615
    1DIPC   C4A13124  24.196   5.533   5.098 -0.1232  0.0359  0.0742
    1DIPC   C1B13125  24.737   5.116   6.117  0.2184 -0.0017 -0.0196
    1DIPC   D2B13126  24.230   5.196   6.080 -0.0750  0.0962  0.0740
    1DIPC   D3B13127  24.002   5.524   5.962 -0.0847 -0.0060  0.2930
    1DIPC   C4B13128  24.258   5.811   5.712  0.0881 -0.0284  0.2881
    1DIPC   NC313129  23.659   5.951   6.774 -0.0205  0.0405 -0.0101
    1DIPC   PO413130  23.317   5.913   6.417  0.0507 -0.0927 -0.1031
    1DIPC   GL113131  23.323   6.122   6.011  0.4613  0.3528  0.0312
    1DIPC   GL213132  23.030   6.348   5.927 -0.1536  0.1630 -0.0128
    1DIPC   C1A13133  23.085   5.999   5.583  0.0817 -0.1588  0.0042
    1DIPC   D2A13134  22.759   5.992   5.176 -0.1953  0.0498 -0.0684
    1DIPC   D3A13135  22.344   6.178   5.165 -0.1465 -0.0398 -0.0248
    1DIPC   C4A13136  22.080   6.334   5.460  0.2037 -0.1039 -0.1911
    1DIPC   C1B13137  22.796   6.373   5.522  0.0527  0.3394  0.1192
    1DIPC   D2B13138  22.744   6.543   5.065 -0.0365  0.3242  0.0539
    1DIPC   D3B13139  22.649   7.031   5.081 -0.1505 -0.1767  0.2476
    1DIPC   C4B13140  22.351   7.209   4.912  0.0417  0.1311 -0.0655
    1DIPC   NC313141   6.161   8.407   7.477  0.0689 -0.0870 -0.0295
    1DIPC   PO413142   5.928   8.637   7.146 -0.1121 -0.3797 -0.0502
    1DIPC   GL113143   5.965   8.470   6.645 -0.3409 -0.1249 -0.5344
    1DIPC   GL213144   6.052   8.766   6.481  0.4818  0.0187  0.0761
    1DIPC   C1A13145   6.008   8.317   6.252 -0.0176  0.0521  0.0184
    1DIPC   D2A13146   6.073   8.176   5.859 -0.2248  0.0506  0.3393
    1DIPC   D3A13147   6.148   7.700   5.842 -0.0541  0.1675  0.0410
    1DIPC   C4A13148   6.312   7.637   6.217  0.0023 -0.2137 -0.2649
    1DIPC   C1B13149   6.321   8.722   6.088 -0.5253  0.1306  0.0302
    1DIPC   D2B13150   6.558   8.491   5.753  0.1896 -0.0061 -0.0110
    1DIPC   D3B13151   6.995   8.628   5.688 -0.0250  0.2872 -0.0596
    1DIPC   C4B13152   7.313   8.316   5.673 -0.3118  0.1241 -0.2644
    1DIPC   NC313153  15.323  25.629   6.723 -0.2350 -0.1675  0.1233
    1DIPC   PO413154  15.625  25.362   6.890  0.2878 -0.2023 -0.3061
    1DIPC   GL113155  15.850  25.443   6.590 -0.0260  0.1774  0.0370
    1DIPC   GL213156  15.676  25.606   6.388 -0.0947 -0.0961  0.1355
    1DIPC   C1A13157  16.089  25.366   6.258  0.0794  0.2361 -0.1447
    1DIPC   D2A13158  16.544  25.384   6.038 -0.1456  0.4612 -0.2627
    1DIPC   D3A13159  16.124  25.710   5.808 -0.1040 -0.0300  0.0419
    1DIPC   C4A13160  15.947  25.500   5.391  0.0937  0.0667  0.0474
    1DIPC   C1B13161  15.675  25.607   5.822  0.0150 -0.1189  0.2012
    1DIPC   D2B13162  15.450  25.452   5.358  0.0916  0.3498  0.0907
    1DIPC   D3B13163  15.486  25.131   5.260 -0.0138  0.0032 -0.2091
    1DIPC   C4B13164  15.186  24.757   5.340 -0.0243 -0.0928  0.0311
    1DIPC   NC313165  26.568  13.202   5.853 -0.1208  0.1786  0.1569
    1DIPC   PO413166  26.166  13.249   5.792  0.0317  0.0484  0.2245
    1DIPC   GL113167  25.831  13.190   5.480 -0.2968  0.0012  0.1046
    1DIPC   GL213168  26.001  13.497   5.332 -0.0233 -0.1185  0.2997
    1DIPC   C1A13169  25.521  13.122   5.170 -0.1450  0.2534  0.4019
    1DIPC   D2A13170  25.247  13.424   4.879  0.3073  0.1801 -0.3092
    1DIPC   D3A13171  25.127  13.460   4.414 -0.1756  0.4597  0.0217
    1DIPC   C4A13172  25.076  13.847   4.189 -0.1314 -0.1064 -0.4526
    1DIPC   C1B13173  25.842  13.454   4.932 -0.1481 -0.3346 -0.0135
    1DIPC   D2B13174  25.903  13.306   4.517 -0.3771  0.1634 -0.1726
    1DIPC   D3B13175  25.948  13.572   4.141 -0.0824  0.0445 -0.2435
    1DIPC   C4B13176  25.611  13.861   3.949  0.2628 -0.0003  0.0604
    1DIPC   NC313177  13.782   7.092   7.480  0.1846  0.3499  0.0688
    1DIPC   PO413178  13.853   7.265   7.016  0.1340  0.4648  0.0421
    1DIPC   GL113179  13.769   7.112   6.616  0.0444 -0.0798  0.4480
    1DIPC   GL213180  14.169   6.999   6.645  0.2275 -0.1294  0.1994
    1DIPC   C1A13181  13.691   7.031   6.138 -0.3054 -0.2255  0.1787
    1DIPC   D2A13182  13.615   7.263   5.792  0.0173 -0.0919  0.0478
    1DIPC   D3A13183  13.445   7.445   5.407  0.2185  0.0796 -0.0021
    1DIPC   C4A13184  13.556   7.630   5.043 -0.1298  0.0195  0.0918
    1DIPC   C1B13185  13.946   6.701   6.497 -0.0584  0.0602 -0.2192
    1DIPC   D2B13186  13.607   6.542   6.264  0.5487  0.1706  0.1202
    1DIPC   D3B13187  13.572   6.371   6.689  0.0796 -0.0604 -0.1109
    1DIPC   C4B13188  13.487   5.965   6.540 -0.2528  0.1701  0.3369
    1DIPC   NC313189  23.441  28.078   6.752 -0.0798  0.0150 -0.0214
    1DIPC   PO413190  23.284  27.695   6.590  0.1460 -0.2172 -0.3471
    1DIPC   GL113191  23.024  27.887   6.401  0.0163 -0.0558  0.3827
    1DIPC   GL213192  22.988  28.229   6.427  0.1750  0.1946 -0.1472
    1DIPC   C1A13193  22.770  27.706   6.049 -0.0492 -0.2596 -0.0642
    1DIPC   D2A13194  22.787  27.722   5.614  0.0286  0.1163 -0.0736
    1DIPC   D3A13195  23.161  27.862   5.501  0.0726  0.4050  0.0385
    1DIPC   C4A13196  23.443  27.744   5.184 -0.1019 -0.0456  0.3012
    1DIPC   C1B13197  23.276  28.145   6.064 -0.1446 -0.0310  0.0002
    1DIPC   D2B13198  23.601  28.406   5.740  0.1361 -0.0404  0.2388
    1DIPC   D3B13199  23.666  27.937   5.842  0.2810  0.0164 -0.0816
    1DIPC   C4B13200  23.817  27.641   5.498 -0.0319 -0.0504  0.0727
    1DIPC   NC313201   5.482  11.821   6.082  0.0080  0.1506  0.1105
    1DIPC   PO413202   5.688  12.241   6.174 -0.2976  0.0973 -0.1362
    1DIPC   GL113203   5.919  12.126   5.752 -0.1962  0.0384 -0.3205
    1DIPC   GL213204   6.216  12.146   5.715 -0.1020 -0.0397 -0.0160
    1DIPC   C1A13205   5.949  12.122   5.300 -0.2872 -0.0610 -0.3056
    1DIPC   D2A13206   6.156  12.265   4.941 -0.0784 -0.0439  0.0658
    1DIPC   D3A13207   6.083  12.342   4.452  0.0159 -0.1767 -0.0700
    1DIPC   C4A13208   6.253  12.774   4.275 -0.0146  0.3384 -0.0685
    1DIPC   C1B13209   6.509  12.240   5.402 -0.3624  0.1365  0.1790
    1DIPC   D2B13210   6.772  12.308   5.063 -0.0988 -0.2932 -0.0326
    1DIPC   D3B13211   7.220  12.354   4.979 -0.2010  0.1781  0.0437
    1DIPC   C4B13212   7.603  12.340   5.212  0.0484  0.1046  0.1505
    1DIPC   NC313213  28.358  13.279   5.872  0.0715  0.1501  0.2148
    1DIPC   PO413214  28.390  13.670   5.853  0.0438  0.2325 -0.0039
    1DIPC   GL113215  28.446  13.481   5.379 -0.4062  0.0470  0.2580
    1DIPC   GL213216  28.726  13.561   5.199 -0.2424 -0.0044 -0.3209
    1DIPC   C1A13217  28.487  13.160   5.084 -0.0221 -0.3246 -0.1247
    1DIPC   D2A13218  28.619  12.730   4.990  0.2326 -0.2179 -0.1717
    1DIPC   D3A13219  28.545  12.500   4.558  0.1743 -0.0750 -0.1345
    1DIPC   C4A13220  28.483  12.193   4.487 -0.0744  0.0780  0.0027
    1DIPC   C1B13221  29.020  13.783   4.814 -0.1988 -0.3164 -0.3703
    1DIPC   D2B13222  29.281  13.634   4.564 -0.1868 -0.1386 -0.2939
    1DIPC   D3B13223  29.057  13.318   4.662 -0.1112  0.0643 -0.0973
    1DIPC   C4B13224  28.828  13.058   4.401 -0.0933 -0.1221 -0.0260
    1DIPC   NC313225  22.769  29.202   6.863 -0.1537 -0.3494  0.3017
    1DIPC   PO413226  22.468  29.546   6.962 -0.2045 -0.1659  0.0352
    1DIPC   GL113227  22.263  29.641   6.526 -0.1315  0.1250  0.0159
    1DIPC   GL213228  22.473  29.942   6.405  0.0426 -0.1177  0.1224
    1DIPC   C1A13229  22.118  29.473   6.284 -0.3932  0.2635  0.2754
    1DIPC   D2A13230  21.977  29.521   5.906  0.2162 -0.4199 -0.1650
    1DIPC   D3A13231  22.067  29.773   5.557 -0.1576 -0.2034 -0.3985
    1DIPC   C4A13232  22.413  29.517   5.404  0.2811 -0.2189  0.0640
    1DIPC   C1B13233  22.138  29.968   6.068  0.0699  0.0337 -0.2769
    1DIPC   D2B13234  22.146  30.220   5.640 -0.0090  0.3623  0.2803
    1DIPC   D3B13235  22.344  30.070   5.325 -0.1860 -0.0507  0.1340
    1DIPC   C4B13236  22.576  30.340   5.027  0.0688  0.1287 -0.1055
    1DIPC   NC313237  15.801  25.894   7.197 -0.2679  0.0993  0.2381
    1DIPC   PO413238  15.663  26.102   6.847 -0.0769 -0.0610  0.1904
    1DIPC   GL113239  15.582  26.045   6.490 -0.0859  0.1120 -0.0089
    1DIPC   GL213240  15.281  25.912   6.282 -0.3008  0.0692 -0.0099
    1DIPC   C1A13241  15.687  26.054   6.053  0.1747  0.0779  0.2229
    1DIPC   D2A13242  15.757  26.109   5.582  0.1286  0.0095 -0.1837
    1DIPC   D3A13243  15.714  25.854   5.151  0.2044  0.0434  0.0531
    1DIPC   C4A13244  15.424  25.826   4.788 -0.0560  0.1289  0.3384
    1DIPC   C1B13245  15.228  26.188   5.945  0.0170 -0.1708 -0.3074
    1DIPC   D2B13246  15.368  26.433   5.642  0.1610  0.0534 -0.1099
    1DIPC   D3B13247  15.585  26.833   5.698  0.3489 -0.0748  0.1267
    1DIPC   C4B13248  15.938  26.799   5.957  0.0126  0.1541 -0.1856
    1DIPC   NC313249  22.221   9.805   6.333 -0.0704  0.0275 -0.1364
    1DIPC   PO413250  22.396   9.516   6.210 -0.0988  0.1017 -0.1396
    1DIPC   GL113251  22.468   9.504   5.724 -0.1990 -0.4091  0.0533
    1DIPC   GL213252  22.798   9.591   5.679  0.5529 -0.0471 -0.0095
    1DIPC   C1A13253  22.446   9.563   5.337  0.1027  0.0185 -0.1507
    1DIPC   D2A13254  22.324   9.513   4.902 -0.5469  0.1055  0.0882
    1DIPC   D3A13255  22.053   9.141   4.666 -0.0217  0.1589 -0.2718
    1DIPC   C4A13256  22.131   8.764   4.718 -0.0940  0.1221  0.1501
    1DIPC   C1B13257  22.899   9.887   5.348 -0.0904  0.0630  0.1206
    1DIPC   D2B13258  22.690   9.929   4.921  0.0430  0.0706 -0.0661
    1DIPC   D3B13259  23.026   9.728   4.504 -0.0705  0.2025 -0.1732
    1DIPC   C4B13260  23.380   9.995   4.525  0.0236  0.1432 -0.0514
    1DIPC   NC313261   5.074  24.465   5.987 -0.0379 -0.1640  0.1606
    1DIPC   PO413262   5.343  24.756   5.907  0.3215  0.5312 -0.0935
    1DIPC   GL113263   5.490  24.884   5.563 -0.1118  0.0320  0.3699
    1DIPC   GL213264   5.237  25.087   5.507 -0.0525 -0.2359 -0.2051
    1DIPC   C1A13265   5.531  25.108   5.103  0.0874 -0.0196 -0.0807
    1DIPC   D2A13266   5.447  25.183   4.674  0.1791  0.1110  0.1564
    1DIPC   D3A13267   5.281  25.084   4.215  0.1560 -0.0115  0.0543
    1DIPC   C4A13268   4.821  25.273   4.192 -0.1052  0.1579  0.2521
    1DIPC   C1B13269   5.021  25.133   5.146 -0.0652 -0.0262  0.2661
    1DIPC   D2B13270   4.922  25.260   4.687  0.0566 -0.1666 -0.0253
    1DIPC   D3B13271   5.176  25.570   4.568 -0.1702 -0.0823  0.1154
    1DIPC   C4B13272   5.234  25.702   4.127  0.0734  0.0321 -0.2400
    1DIPC   NC313273   2.906  23.179   5.676 -0.0429 -0.0536  0.1439
    1DIPC   PO413274   2.766  23.568   5.621  0.1303  0.1101  0.1791
    1DIPC   GL113275   2.845  23.372   5.242 -0.0048  0.2361 -0.0892
    1DIPC   GL213276   2.807  23.564   5.034 -0.0734 -0.1174  0.1421
    1DIPC   C1A13277   2.806  23.035   4.919  0.1735 -0.2215  0.1368
    1DIPC   D2A13278   2.659  22.877   4.533  0.0041 -0.0300  0.1064
    1DIPC   D3A13279   2.452  23.294   4.579  0.2621 -0.3920 -0.1963
    1DIPC   C4A13280   2.698  23.685   4.472  0.0926 -0.1740  0.4110
    1DIPC   C1B13281   3.028  23.369   4.633  0.0563  0.1523 -0.0155
    1DIPC   D2B13282   2.939  23.237   4.253 -0.2193  0.1762  0.0169
    1DIPC   D3B13283   2.828  23.506   3.932 -0.1093 -0.2035 -0.1738
    1DIPC   C4B13284   2.579  23.900   3.998 -0.0058 -0.0460 -0.0760
    1DIPC   NC313285   5.375  19.310   6.188 -0.1808  0.0974 -0.0938
    1DIPC   PO413286   5.546  19.136   5.877 -0.0926 -0.0891  0.0769
    1DIPC   GL113287   5.410  19.139   5.398  0.3846 -0.0474 -0.1180
    1DIPC   GL213288   5.520  18.898   5.203  0.0298  0.2489 -0.1516
    1DIPC   C1A13289   5.292  19.274   4.920 -0.3149  0.3073 -0.1924
    1DIPC   D2A13290   5.450  19.472   4.550  0.0999 -0.0229 -0.1361
    1DIPC   D3A13291   5.444  19.421   4.172 -0.2030 -0.2413  0.0363
    1DIPC   C4A13292   5.101  19.282   3.935  0.0914 -0.2317 -0.0638
    1DIPC   C1B13293   5.892  18.830   4.957  0.2185 -0.2836 -0.0244
    1DIPC   D2B13294   6.268  18.578   4.829  0.0283  0.1532  0.1723
    1DIPC   D3B13295   6.183  18.318   4.470 -0.2610 -0.2160 -0.3863
    1DIPC   C4B13296   6.145  18.417   3.991  0.2338  0.1515  0.0843
    1DIPC   NC313297   3.308   2.618   6.731  0.4446 -0.0904  0.0159
    1DIPC   PO413298   3.641   2.425   6.864  0.0039 -0.5045  0.4023
    1DIPC   GL113299   3.903   2.468   6.413  0.2540 -0.1095  0.2478
    1DIPC   GL213300   3.808   2.316   6.142  0.0059  0.3758 -0.2943
    1DIPC   C1A13301   4.129   2.679   6.044  0.1819  0.3791  0.1930
    1DIPC   D2A13302   4.198   2.618   5.556  0.1717 -0.0728  0.2763
    1DIPC   D3A13303   4.419   2.714   5.162  0.1786 -0.0633 -0.1126
    1DIPC   C4A13304   4.426   3.215   5.203  0.0796 -0.0522 -0.4402
    1DIPC   C1B13305   4.132   2.216   5.877 -0.2521  0.1562 -0.0985
    1DIPC   D2B13306   4.278   1.815   5.654  0.3174 -0.2444 -0.0541
    1DIPC   D3B13307   4.126   2.091   5.341 -0.1703 -0.0055 -0.1864
    1DIPC   C4B13308   4.007   1.816   5.027  0.0882  0.0601  0.1661
    1DIPC   NC313309  22.295  22.507   6.761 -0.0233 -0.0328 -0.1121
    1DIPC   PO413310  22.431  22.851   6.475  0.0426  0.0756  0.2261
    1DIPC   GL113311  22.309  23.000   6.036  0.0114  0.0596 -0.2724
    1DIPC   GL213312  22.003  22.975   6.012  0.0906  0.0586  0.1009
    1DIPC   C1A13313  22.410  23.127   5.621  0.0108  0.0938 -0.1224
    1DIPC   D2A13314  22.265  23.342   5.242 -0.3034 -0.0604 -0.5545
    1DIPC   D3A13315  22.631  23.497   5.262 -0.1214 -0.2026 -0.2951
    1DIPC   C4A13316  22.770  23.778   4.872  0.1254 -0.0862 -0.1241
    1DIPC   C1B13317  22.285  22.600   5.780 -0.0162 -0.0861 -0.1451
    1DIPC   D2B13318  22.091  22.314   5.453  0.1670  0.2114 -0.1650
    1DIPC   D3B13319  22.366  22.183   4.999 -0.0166  0.1581  0.2050
    1DIPC   C4B13320  22.830  22.077   4.999  0.1363  0.2929  0.2395
    1DIPC   NC313321   8.041  25.129   6.316 -0.1428  0.1045  0.0833
    1DIPC   PO413322   7.732  25.301   6.021  0.1287 -0.1666  0.1463
    1DIPC   GL113323   7.431  25.519   5.807  0.1994  0.1508  0.0666
    1DIPC   GL213324   7.616  25.792   5.769 -0.0992 -0.1176  0.2674
    1DIPC   C1A13325   7.257  25.566   5.378  0.1730  0.1112  0.1330
    1DIPC   D2A13326   6.881  25.826   5.155  0.1304 -0.0255  0.0942
    1DIPC   D3A13327   6.516  25.900   5.141  0.2896 -0.0093  0.1344
    1DIPC   C4A13328   6.505  25.433   5.062 -0.2481  0.0680 -0.2165
    1DIPC   C1B13329   7.722  25.799   5.250  0.1908  0.4480  0.0136
    1DIPC   D2B13330   7.774  25.861   4.834  0.6551 -0.0005 -0.1313
    1DIPC   D3B13331   7.695  26.233   4.487 -0.0103 -0.0204  0.0542
    1DIPC   C4B13332   7.369  26.363   4.221  0.0328 -0.1017  0.0804
    1DIPC   NC313333  25.884  24.234   6.607 -0.3796 -0.0475 -0.2516
    1DIPC   PO413334  25.890  24.748   6.585  0.0581  0.1692  0.1719
    1DIPC   GL113335  25.911  24.569   6.155 -0.2082 -0.1273 -0.2226
    1DIPC   GL213336  25.655  24.572   5.920 -0.0520  0.0412 -0.4040
    1DIPC   C1A13337  25.984  24.459   5.566  0.0125  0.1744  0.2174
    1DIPC   D2A13338  25.951  24.356   5.143  0.1047 -0.0985  0.2473
    1DIPC   D3A13339  25.841  24.174   4.816  0.1839 -0.0872 -0.0337
    1DIPC   C4A13340  25.500  23.987   4.928 -0.1316  0.1535 -0.0739
    1DIPC   C1B13341  25.467  24.651   5.430  0.3015  0.0676  0.0877
    1DIPC   D2B13342  25.450  24.457   5.017 -0.0146  0.1772  0.0718
    1DIPC   D3B13343  25.737  24.626   4.701  0.0159  0.1180 -0.1918
    1DIPC   C4B13344  25.640  24.985   4.584  0.1284  0.0299 -0.2278
    1DIPC   NC313345   7.180  12.830   6.389 -0.0982  0.1810  0.0712
    1DIPC   PO413346   6.955  13.218   6.513  0.0944  0.2754  0.2083
    1DIPC   GL113347   6.974  13.198   6.016  0.0551  0.2050 -0.1944
    1DIPC   GL213348   7.279  13.179   5.911 -0.0793 -0.1452  0.1854
    1DIPC   C1A13349   6.781  13.466   5.767  0.0706  0.3997  0.0845
    1DIPC   D2A13350   6.854  13.504   5.274 -0.2647  0.3010 -0.2911
    1DIPC   D3A13351   6.914  13.082   5.189  0.4115 -0.4433 -0.1772
    1DIPC   C4A13352   6.887  12.840   4.879  0.3236  0.2129  0.2157
    1DIPC   C1B13353   7.287  13.059   5.578 -0.0951  0.0930  0.1708
    1DIPC   D2B13354   7.239  12.687   5.367 -0.0670  0.0393  0.2415
    1DIPC   D3B13355   7.677  12.792   5.381 -0.2500 -0.1493  0.2201
    1DIPC   C4B13356   7.763  13.235   5.440  0.2065  0.1499 -0.1100
    1DIPC   NC313357   8.849  25.108   5.806 -0.1473 -0.0330  0.0823
    1DIPC   PO413358   8.978  25.428   5.865  0.0175  0.1101 -0.1628
    1DIPC   GL113359   8.876  25.389   5.378  0.2318  0.1740 -0.0508
    1DIPC   GL213360   8.567  25.405   5.304  0.2674  0.1090  0.1965
    1DIPC   C1A13361   8.913  25.210   4.961  0.1079  0.0976  0.2335
    1DIPC   D2A13362   8.897  24.953   4.654 -0.1354 -0.0091  0.0540
    1DIPC   D3A13363   9.141  25.113   4.324 -0.1583  0.1123 -0.1779
    1DIPC   C4A13364   9.268  24.729   4.039 -0.1673  0.2159 -0.1283
    1DIPC   C1B13365   8.209  25.548   4.988  0.0008  0.4339 -0.0734
    1DIPC   D2B13366   8.231  25.696   4.584 -0.2289  0.0924  0.3175
    1DIPC   D3B13367   8.570  26.029   4.500 -0.0001 -0.0092 -0.0144
    1DIPC   C4B13368   8.795  25.988   4.239 -0.2769  0.3258  0.3230
    1DIPC   NC313369  12.933  13.029   7.174 -0.0048  0.3440  0.1096
    1DIPC   PO413370  12.788  12.571   7.367 -0.1189  0.1628  0.1259
    1DIPC   GL113371  12.549  12.537   7.008  0.1070  0.0537 -0.1692
    1DIPC   GL213372  12.457  12.681   6.729  0.0833  0.3119 -0.2594
    1DIPC   C1A13373  12.516  12.153   6.809 -0.1263  0.1464  0.0591
    1DIPC   D2A13374  12.364  11.870   6.511  0.1050  0.0327  0.2243
    1DIPC   D3A13375  12.011  11.918   6.479  0.1158  0.0991 -0.0573
    1DIPC   C4A13376  11.718  12.027   6.275 -0.0163 -0.1015  0.2624
    1DIPC   C1B13377  12.354  12.435   6.402  0.2990  0.1763  0.0104
    1DIPC   D2B13378  12.404  12.367   6.040 -0.3841  0.2504  0.0179
    1DIPC   D3B13379  12.062  12.022   5.945 -0.4079 -0.1851  0.1824
    1DIPC   C4B13380  12.149  11.599   6.030 -0.1041  0.0822  0.2647
    1DIPC   NC313381  25.328   5.030   6.485 -0.1589  0.0536 -0.0223
    1DIPC   PO413382  25.699   5.260   6.334 -0.1884 -0.0602 -0.1805
    1DIPC   GL113383  25.543   5.352   5.989  0.1311 -0.0722  0.0146
    1DIPC   GL213384  25.377   5.069   6.000 -0.1076 -0.0186  0.3019
    1DIPC   C1A13385  25.389   5.401   5.526 -0.0682 -0.1491  0.0014
    1DIPC   D2A13386  25.064   5.578   5.323 -0.2001  0.1547 -0.1349
    1DIPC   D3A13387  25.241   5.386   4.996  0.0083  0.0406  0.0907
    1DIPC   C4A13388  25.683   5.262   5.083  0.0534  0.1042 -0.0815
    1DIPC   C1B13389  25.073   4.942   5.703  0.1455 -0.0599  0.4592
    1DIPC   D2B13390  24.879   5.054   5.241 -0.1474  0.2042 -0.3546
    1DIPC   D3B13391  24.449   4.947   5.184 -0.0860  0.0680 -0.0058
    1DIPC   C4B13392  24.397   4.514   5.068 -0.3156  0.0134 -0.1771
    1DIPC   NC313393   5.559  20.557   5.680 -0.1129 -0.0200 -0.1735
    1DIPC   PO413394   5.486  20.931   5.490  0.2713  0.1297 -0.0151
    1DIPC   GL113395   5.633  21.320   5.399  0.0059  0.0889 -0.1360
    1DIPC   GL213396   5.910  21.321   5.240  0.1925 -0.1560 -0.0035
    1DIPC   C1A13397   5.627  21.692   5.052 -0.2390 -0.2568  0.0007
    1DIPC   D2A13398   5.609  22.030   4.696 -0.0146 -0.1460  0.0939
    1DIPC   D3A13399   5.583  22.257   4.354  0.2582 -0.0656 -0.1804
    1DIPC   C4A13400   5.709  22.539   4.011  0.3745  0.0225  0.2004
    1DIPC   C1B13401   5.954  21.283   4.798  0.0148 -0.0993  0.1015
    1DIPC   D2B13402   6.120  21.390   4.380 -0.0448 -0.1611  0.0926
    1DIPC   D3B13403   5.901  21.075   4.268 -0.2843 -0.0067 -0.3178
    1DIPC   C4B13404   5.597  20.969   4.315 -0.0698 -0.2515  0.1538
    1DIPC   NC313405  26.449   2.432   6.461 -0.4131 -0.0543 -0.2968
    1DIPC   PO413406  26.421   1.985   6.477 -0.3118  0.1151 -0.0812
    1DIPC   GL113407  26.307   2.016   6.090  0.3385 -0.2672  0.3163
    1DIPC   GL213408  26.574   2.204   5.940  0.1879  0.0347  0.1766
    1DIPC   C1A13409  26.203   2.052   5.654 -0.0202  0.2621 -0.0411
    1DIPC   D2A13410  26.327   2.121   5.288 -0.4331 -0.0943 -0.1850
    1DIPC   D3A13411  26.622   1.936   5.069  0.0778  0.0301  0.0374
    1DIPC   C4A13412  26.968   2.278   4.926 -0.3185  0.0777 -0.1453
    1DIPC   C1B13413  26.436   2.621   5.707  0.0552  0.1082  0.1554
    1DIPC   D2B13414  26.524   3.053   5.835  0.2390 -0.0562 -0.0198
    1DIPC   D3B13415  26.097   3.326   5.791  0.0315 -0.1449 -0.1558
    1DIPC   C4B13416  26.019   3.640   5.479 -0.0521  0.2271  0.0548
    1DIPC   NC313417   7.936   8.616   7.034 -0.2015 -0.2098  0.0300
    1DIPC   PO413418   7.784   8.193   6.891 -0.1720  0.1931  0.1279
    1DIPC   GL113419   7.680   8.161   6.489 -0.1752  0.0239  0.1085
    1DIPC   GL213420   7.586   7.915   6.450 -0.2756  0.1605  0.1857
    1DIPC   C1A13421   7.802   8.313   6.098  0.1106 -0.0033 -0.1616
    1DIPC   D2A13422   8.132   8.326   5.786 -0.1663  0.2551 -0.0701
    1DIPC   D3A13423   8.382   8.271   5.366  0.2193 -0.0538  0.3325
    1DIPC   C4A13424   8.155   8.129   4.950 -0.2126 -0.2886  0.0362
    1DIPC   C1B13425   7.962   7.807   6.221 -0.1394 -0.1942  0.0194
    1DIPC   D2B13426   8.373   7.967   6.088 -0.1948 -0.0911  0.2369
    1DIPC   D3B13427   8.466   7.815   5.703  0.0221 -0.1253  0.1343
    1DIPC   C4B13428   8.091   7.898   5.446 -0.2536  0.1891 -0.1492
    1DIPC   NC313429  20.988  19.052   6.750  0.0830  0.2385 -0.2993
    1DIPC   PO413430  20.637  18.702   6.705  0.3247 -0.0973  0.1297
    1DIPC   GL113431  20.770  18.899   6.352 -0.0152  0.0074  0.0689
    1DIPC   GL213432  20.794  18.695   6.101  0.0888  0.0287  0.2812
    1DIPC   C1A13433  20.620  19.223   6.109  0.1084 -0.0837  0.2674
    1DIPC   D2A13434  20.485  19.532   6.281  0.1515  0.1586  0.1625
    1DIPC   D3A13435  20.193  19.472   6.020  0.1553 -0.0836 -0.1000
    1DIPC   C4A13436  19.791  19.252   6.069 -0.0472 -0.0534 -0.4100
    1DIPC   C1B13437  21.261  18.615   5.856 -0.0550  0.4425  0.1356
    1DIPC   D2B13438  21.613  18.583   5.784  0.2262  0.0401 -0.0614
    1DIPC   D3B13439  21.782  18.583   5.355 -0.3290  0.0189  0.3937
    1DIPC   C4B13440  21.878  18.166   5.228  0.3040 -0.0345  0.1001
    1DIPC   NC313441   8.636   4.337   7.313  0.0631 -0.0779 -0.1368
    1DIPC   PO413442   8.414   4.233   6.912 -0.2121  0.1275 -0.2184
    1DIPC   GL113443   8.672   4.214   6.552  0.0036 -0.1577 -0.2305
    1DIPC   GL213444   9.027   4.225   6.501 -0.0232 -0.1409  0.1778
    1DIPC   C1A13445   8.774   3.988   6.156  0.0603 -0.0746 -0.0494
    1DIPC   D2A13446   8.995   3.560   6.152 -0.0674 -0.1638  0.0066
    1DIPC   D3A13447   9.048   3.662   5.754  0.0340  0.0796 -0.1884
    1DIPC   C4A13448   8.756   3.956   5.642 -0.1075 -0.0889  0.1420
    1DIPC   C1B13449   8.980   4.486   6.102 -0.1871 -0.0620  0.0965
    1DIPC   D2B13450   8.743   4.794   5.868  0.0674  0.0666  0.1039
    1DIPC   D3B13451   9.052   5.016   5.585 -0.1793 -0.1796  0.1617
    1DIPC   C4B13452   9.055   5.274   5.176  0.0000  0.2711 -0.0411
    1DIPC   NC313453   8.490  23.627   5.948 -0.1236  0.0322  0.0357
    1DIPC   PO413454   8.684  24.021   5.913 -0.1228 -0.1305  0.0159
    1DIPC   GL113455   8.809  24.157   5.499 -0.1699  0.0651 -0.0471
    1DIPC   GL213456   8.676  24.438   5.327  0.2506 -0.2734  0.3131
    1DIPC   C1A13457   9.196  24.363   5.399  0.0712 -0.1164 -0.1237
    1DIPC   D2A13458   9.607  24.599   5.245 -0.1632  0.2020  0.3659
    1DIPC   D3A13459   9.474  24.414   4.870  0.2164 -0.0627  0.0700
    1DIPC   C4A13460   9.341  24.026   4.828 -0.0858  0.0306  0.1254
    1DIPC   C1B13461   8.545  24.431   4.849 -0.0741 -0.0973  0.0549
    1DIPC   D2B13462   8.479  24.602   4.496 -0.0934 -0.1798  0.2912
    1DIPC   D3B13463   8.071  24.628   4.629 -0.1056  0.0452  0.0795
    1DIPC   C4B13464   8.000  24.981   4.922  0.2926 -0.0688  0.1074
    1DIPC   NC313465  26.143  25.585   6.756  0.0229 -0.2513 -0.3546
    1DIPC   PO413466  26.336  25.369   6.328 -0.0484 -0.0544 -0.0118
    1DIPC   GL113467  26.116  25.364   5.917  0.0224 -0.1725  0.0491
    1DIPC   GL213468  25.972  25.118   5.932  0.1204  0.0118  0.1528
    1DIPC   C1A13469  26.352  25.456   5.600 -0.2200  0.2219  0.0661
    1DIPC   D2A13470  26.653  25.324   5.304 -0.1229 -0.1141 -0.1198
    1DIPC   D3A13471  26.852  25.450   4.892 -0.1092 -0.0361  0.0110
    1DIPC   C4A13472  27.214  25.377   4.708 -0.0998 -0.2398  0.2329
    1DIPC   C1B13473  25.850  24.968   5.526 -0.1291 -0.2941  0.0615
    1DIPC   D2B13474  25.779  24.921   5.103 -0.1712  0.0980  0.0753
    1DIPC   D3B13475  26.080  24.961   4.793  0.1675 -0.3261 -0.6875
    1DIPC   C4B13476  26.321  25.298   4.811 -0.2282  0.0082  0.0172
    1DIPC   NC313477  23.263  13.358   6.371 -0.1466 -0.1644 -0.0153
    1DIPC   PO413478  23.329  13.001   6.114  0.0140  0.0383  0.2669
    1DIPC   GL113479  23.437  13.021   5.738  0.0211  0.1285  0.1003
    1DIPC   GL213480  23.625  13.321   5.573  0.1734  0.1096  0.1122
    1DIPC   C1A13481  23.327  12.701   5.436  0.1645 -0.0305  0.2750
    1DIPC   D2A13482  23.305  12.294   5.244  0.1487  0.0817 -0.2980
    1DIPC   D3A13483  23.452  12.297   4.874 -0.0559 -0.0075 -0.0115
    1DIPC   C4A13484  23.807  12.533   4.708  0.1967  0.1899  0.0096
    1DIPC   C1B13485  23.534  13.325   5.115 -0.1978  0.2279  0.1365
    1DIPC   D2B13486  23.243  13.170   4.825  0.0845  0.0323  0.1505
    1DIPC   D3B13487  22.786  13.354   4.831 -0.0470 -0.0557  0.0836
    1DIPC   C4B13488  22.499  13.309   4.525 -0.2381 -0.1822 -0.0228
    1DIPC   NC313489  16.863  20.883   7.412 -0.0038  0.0156  0.0267
    1DIPC   PO413490  16.947  21.280   7.390  0.0505  0.0028 -0.1460
    1DIPC   GL113491  17.266  21.158   7.051 -0.2244 -0.2524  0.1296
    1DIPC   GL213492  17.133  20.881   6.969  0.0602 -0.0253  0.2242
    1DIPC   C1A13493  17.587  21.252   6.798  0.4083 -0.1334 -0.0802
    1DIPC   D2A13494  17.880  20.998   6.526  0.0783 -0.0243  0.1408
    1DIPC   D3A13495  18.226  21.142   6.558  0.0061 -0.0254  0.0699
    1DIPC   C4A13496  18.592  21.000   6.235  0.1669 -0.0215  0.1073
    1DIPC   C1B13497  17.331  20.947   6.507  0.1635  0.0503  0.0987
    1DIPC   D2B13498  17.597  20.942   6.105 -0.1210  0.2564  0.0420
    1DIPC   D3B13499  17.787  20.892   5.633 -0.1139  0.4764  0.6208
    1DIPC   C4B13500  18.121  21.130   5.411  0.2042  0.2660 -0.3416
    1DIPC   NC313501   5.281   5.673   7.608 -0.2303 -0.0161 -0.0867
    1DIPC   PO413502   5.139   5.343   7.271  0.0918  0.0443  0.1111
    1DIPC   GL113503   5.351   5.486   6.764 -0.2416  0.2560 -0.3073
    1DIPC   GL213504   5.695   5.446   6.697  0.3299  0.4512 -0.0244
    1DIPC   C1A13505   5.227   5.432   6.317 -0.0584 -0.0503  0.2220
    1DIPC   D2A13506   5.423   5.613   5.999  0.1039 -0.1980 -0.0752
    1DIPC   D3A13507   5.484   5.911   5.668  0.0620 -0.0260  0.1512
    1DIPC   C4A13508   5.373   5.705   5.253  0.4263 -0.1447  0.0560
    1DIPC   C1B13509   5.725   5.337   6.342 -0.0021 -0.2273  0.1025
    1DIPC   D2B13510   5.684   5.009   6.132 -0.0815  0.1070 -0.1949
    1DIPC   D3B13511   5.881   4.941   5.716 -0.0450  0.0875 -0.0213
    1DIPC   C4B13512   5.662   4.701   5.533 -0.0484  0.0706 -0.0666
    1DIPC   NC313513  22.886  22.301   7.189  0.0145 -0.3634  0.2054
    1DIPC   PO413514  22.732  22.610   6.946  0.0336 -0.1891  0.0619
    1DIPC   GL113515  22.862  22.538   6.472  0.0864 -0.1985  0.1942
    1DIPC   GL213516  22.804  22.721   6.164  0.2453 -0.1755  0.1143
    1DIPC   C1A13517  22.806  22.178   6.190  0.4079  0.1342  0.0437
    1DIPC   D2A13518  22.767  21.839   5.949  0.1860 -0.1440  0.2638
    1DIPC   D3A13519  23.137  21.834   5.890 -0.2729 -0.1316 -0.0148
    1DIPC   C4A13520  23.423  21.831   5.469  0.1057 -0.2194  0.0185
    1DIPC   C1B13521  22.766  22.697   5.714  0.0961  0.1386  0.0853
    1DIPC   D2B13522  22.644  22.391   5.370 -0.1173  0.3734  0.0740
    1DIPC   D3B13523  22.641  22.023   5.515  0.2188  0.4476  0.2148
    1DIPC   C4B13524  22.330  21.824   5.471  0.1232 -0.1172 -0.3861
    1DIPC   NC313525  14.637   2.992   7.252  0.0923 -0.0357 -0.1007
    1DIPC   PO413526  14.724   2.920   6.854  0.2183 -0.3812  0.1990
    1DIPC   GL113527  14.737   2.524   6.601 -0.0605  0.0660  0.0135
    1DIPC   GL213528  14.526   2.391   6.639 -0.5287 -0.0155  0.0472
    1DIPC   C1A13529  14.783   2.406   6.226 -0.0530 -0.1090  0.0442
    1DIPC   D2A13530  15.030   2.328   5.839 -0.2876 -0.1276  0.0967
    1DIPC   D3A13531  14.715   2.492   5.518  0.1750 -0.1211 -0.1208
    1DIPC   C4A13532  14.795   2.363   5.062 -0.0717  0.1714 -0.2887
    1DIPC   C1B13533  14.554   1.992   6.413  0.1002  0.0701  0.0891
    1DIPC   D2B13534  14.345   1.808   6.021  0.0490 -0.0073  0.1845
    1DIPC   D3B13535  14.633   1.954   5.657  0.0348  0.1303 -0.3104
    1DIPC   C4B13536  14.543   1.906   5.309  0.1365 -0.1775  0.1779
    1DIPC   NC313537  15.853   1.297   7.138 -0.1930  0.0520  0.0834
    1DIPC   PO413538  16.205   1.354   6.737  0.1501  0.3652  0.2661
    1DIPC   GL113539  16.151   1.170   6.310 -0.0921  0.2053 -0.1266
    1DIPC   GL213540  16.519   0.974   6.259 -0.4479  0.2098 -0.0933
    1DIPC   C1A13541  16.008   1.290   5.946  0.2352 -0.2400  0.1915
    1DIPC   D2A13542  15.825   1.267   5.485 -0.1670 -0.5486  0.2746
    1DIPC   D3A13543  15.414   1.142   5.653 -0.2865 -0.0040  0.0195
    1DIPC   C4A13544  15.077   1.431   5.501  0.3353  0.0031 -0.0034
    1DIPC   C1B13545  16.486   1.094   5.789 -0.1394 -0.1039  0.2281
    1DIPC   D2B13546  16.731   1.416   5.589 -0.2199 -0.2087  0.1454
    1DIPC   D3B13547  16.394   1.539   5.284 -0.0222 -0.1092  0.1950
    1DIPC   C4B13548  16.254   1.889   5.090  0.0800 -0.1718 -0.2159
    1DIPC   NC313549   2.901  27.498   6.224  0.2062 -0.1215 -0.1802
    1DIPC   PO413550   2.541  27.158   6.151 -0.1015  0.2849  0.0530
    1DIPC   GL113551   2.607  27.338   5.791 -0.1791 -0.1338 -0.1140
    1DIPC   GL213552   2.532  27.524   5.822 -0.0801  0.1294 -0.0900
    1DIPC   C1A13553   2.836  27.314   5.437  0.1844  0.0125 -0.1351
    1DIPC   D2A13554   3.015  27.227   4.983  0.1243 -0.1860  0.0249
    1DIPC   D3A13555   3.066  27.684   4.943 -0.0313 -0.0121 -0.1771
    1DIPC   C4A13556   2.997  27.945   5.349 -0.2026 -0.1109  0.0699
    1DIPC   C1B13557   2.535  27.833   5.478  0.1818 -0.1226  0.0175
    1DIPC   D2B13558   2.291  27.877   5.083  0.2627  0.0702  0.1831
    1DIPC   D3B13559   2.564  27.558   4.974 -0.0296  0.0052  0.0451
    1DIPC   C4B13560   2.421  27.184   5.011 -0.0149  0.0089 -0.1856
    1DIPC   NC313561   1.099  11.025   5.992 -0.0942  0.0725  0.3812
    1DIPC   PO413562   1.516  10.996   6.160 -0.1245 -0.1556  0.1726
    1DIPC   GL113563   1.514  11.182   5.771 -0.0357  0.1499  0.1022
    1DIPC   GL213564   1.259  11.266   5.644 -0.1752 -0.0227 -0.2727
    1DIPC   C1A13565   1.730  11.069   5.325 -0.1322 -0.1107  0.0180
    1DIPC   D2A13566   1.933  10.661   5.279  0.3166  0.2690 -0.0652
    1DIPC   D3A13567   2.392  10.782   5.402  0.0619 -0.2097  0.2449
    1DIPC   C4A13568   2.511  10.369   5.481 -0.3830  0.0175  0.0091
    1DIPC   C1B13569   1.301  11.356   5.234 -0.0764  0.0989 -0.3129
    1DIPC   D2B13570   1.345  11.317   4.720  0.0478  0.1295  0.1719
    1DIPC   D3B13571   1.764  11.354   4.875  0.1053  0.2020  0.0192
    1DIPC   C4B13572   2.130  11.544   4.767  0.1379  0.0048  0.1192
    1DIPC   NC313573  21.347  10.439   6.005  0.1349  0.1506 -0.2100
    1DIPC   PO413574  20.945  10.576   6.178 -0.1331 -0.0076 -0.1591
    1DIPC   GL113575  21.005  10.877   5.892 -0.0977  0.0038 -0.1016
    1DIPC   GL213576  21.046  11.240   5.863 -0.2839 -0.1127 -0.2108
    1DIPC   C1A13577  21.073  10.761   5.410  0.2334  0.0657  0.0739
    1DIPC   D2A13578  21.387  10.741   5.049 -0.0573  0.0731 -0.0126
    1DIPC   D3A13579  21.161  10.588   4.826  0.1784  0.1544  0.1087
    1DIPC   C4A13580  21.293  10.397   4.451  0.1093  0.3300  0.0430
    1DIPC   C1B13581  21.178  11.290   5.462 -0.0803 -0.2653  0.1205
    1DIPC   D2B13582  21.402  11.350   5.062 -0.0141 -0.3302 -0.1133
    1DIPC   D3B13583  21.469  11.514   4.685 -0.1102  0.1262  0.0973
    1DIPC   C4B13584  21.311  11.849   4.445 -0.3001 -0.1560 -0.2899
    1DIPC   NC313585  26.542   0.679   6.827  0.2140  0.0215  0.2661
    1DIPC   PO413586  26.883   0.674   6.534 -0.1992 -0.0394  0.1493
    1DIPC   GL113587  26.645   0.650   6.171  0.2443  0.2296  0.1717
    1DIPC   GL213588  26.849   0.772   5.947  0.2243 -0.0086 -0.0877
    1DIPC   C1A13589  26.468   0.349   5.983  0.2656  0.1198  0.0079
    1DIPC   D2A13590  26.397   0.123   5.497 -0.0123 -0.0728 -0.0975
    1DIPC   D3A13591  26.485   0.507   5.428 -0.0601 -0.0852  0.2952
    1DIPC   C4A13592  26.353   0.846   5.678 -0.4475 -0.1337 -0.0615
    1DIPC   C1B13593  26.920   1.017   5.514  0.0676 -0.1514 -0.1343
    1DIPC   D2B13594  27.190   1.002   5.015  0.1012  0.1682 -0.0009
    1DIPC   D3B13595  26.732   0.870   5.080  0.1257  0.2694  0.2416
    1DIPC   C4B13596  26.470   1.168   5.279 -0.0685  0.2000  0.0248
    1DIPC   NC313597   0.168  24.817   6.148 -0.3748  0.3431 -0.0019
    1DIPC   PO413598  -0.222  24.982   6.249  0.1186  0.0242 -0.1685
    1DIPC   GL113599  -0.554  25.072   5.890  0.3738 -0.1455  0.1148
    1DIPC   GL213600  -0.877  24.949   5.847  0.0644  0.2175  0.0465
    1DIPC   C1A13601  -0.414  25.004   5.491  0.0569  0.1092  0.1708
    1DIPC   D2A13602  -0.338  25.272   5.186 -0.1320  0.1686 -0.0323
    1DIPC   D3A13603  -0.807  25.143   4.947  0.1800 -0.2334 -0.1479
    1DIPC   C4A13604  -1.063  25.328   4.625  0.0520 -0.0396 -0.0070
    1DIPC   C1B13605  -0.694  24.563   5.674  0.0218 -0.0437  0.0377
    1DIPC   D2B13606  -0.522  24.501   5.349  0.1751  0.1543  0.3498
    1DIPC   D3B13607  -0.506  24.120   5.314 -0.0895  0.1127 -0.0232
    1DIPC   C4B13608  -0.513  23.695   5.519 -0.0598  0.1926  0.3723
    1DIPC   NC313609   4.802   0.248   6.876 -0.1623  0.4130  0.2622
    1DIPC   PO413610   4.881  -0.126   6.795 -0.0922 -0.2217  0.1326
    1DIPC   GL113611   5.024   0.035   6.428 -0.1872 -0.2778 -0.0459
    1DIPC   GL213612   5.312   0.063   6.564  0.2646  0.1512 -0.1146
    1DIPC   C1A13613   5.147   0.217   6.043  0.0821  0.3185 -0.1733
    1DIPC   D2A13614   5.196   0.451   5.633  0.1604  0.0806 -0.1040
    1DIPC   D3A13615   5.552   0.423   5.271 -0.0133  0.0446  0.1384
    1DIPC   C4A13616   5.502   0.766   5.024 -0.2238  0.0013  0.3967
    1DIPC   C1B13617   5.318   0.446   6.448  0.0877  0.4631  0.1174
    1DIPC   D2B13618   5.488   0.710   6.080  0.3912  0.0434 -0.1594
    1DIPC   D3B13619   5.924   0.885   5.989 -0.1663 -0.2113 -0.2788
    1DIPC   C4B13620   5.930   1.298   5.890  0.0932 -0.2886 -0.0548
    1DIPC   NC313621  11.750  26.407   6.378  0.1795 -0.0528 -0.1597
    1DIPC   PO413622  11.468  26.784   6.490  0.0073 -0.2796 -0.0757
    1DIPC   GL113623  11.491  26.831   6.116  0.1238 -0.0834 -0.0886
    1DIPC   GL213624  11.703  26.670   5.917 -0.2891  0.1539 -0.0841
    1DIPC   C1A13625  11.220  27.045   5.822 -0.1782 -0.2982 -0.0711
    1DIPC   D2A13626  10.835  27.315   5.850 -0.1312  0.0226  0.1943
    1DIPC   D3A13627  11.133  27.457   5.519  0.3943  0.1282 -0.0147
    1DIPC   C4A13628  11.231  27.869   5.580  0.0415  0.1852  0.2095
    1DIPC   C1B13629  11.503  26.729   5.476 -0.0407  0.1355  0.3480
    1DIPC   D2B13630  11.304  26.608   5.004 -0.0728 -0.1790  0.4348
    1DIPC   D3B13631  11.434  26.300   4.777  0.0891 -0.0713  0.0859
    1DIPC   C4B13632  11.392  25.910   5.017 -0.0697  0.2992 -0.0816
    1DIPC   NC313633   7.642  20.517   5.865 -0.1143  0.2461  0.0263
    1DIPC   PO413634   7.356  20.273   5.610 -0.1513  0.0513  0.2345
    1DIPC   GL113635   7.510  20.189   5.217  0.1117  0.0442  0.0818
    1DIPC   GL213636   7.291  19.979   5.055 -0.0997 -0.2610  0.3841
    1DIPC   C1A13637   7.772  20.208   4.868  0.2394  0.2058 -0.2281
    1DIPC   D2A13638   8.020  20.013   4.544 -0.0899 -0.3973 -0.0854
    1DIPC   D3A13639   7.764  19.691   4.281 -0.2169 -0.1398  0.1491
    1DIPC   C4A13640   7.655  19.772   3.775 -0.1796  0.1073  0.0289
    1DIPC   C1B13641   7.172  19.696   4.659 -0.0649  0.1022  0.2769
    1DIPC   D2B13642   7.260  19.556   4.264 -0.0025 -0.0079 -0.1970
    1DIPC   D3B13643   6.915  19.831   4.165 -0.1036 -0.1518  0.2965
    1DIPC   C4B13644   6.889  20.270   4.039 -0.3444 -0.0435  0.0798
    1DIPC   NC313645  26.893  11.256   6.074 -0.1395 -0.0541  0.0992
    1DIPC   PO413646  26.655  11.575   5.865  0.1598 -0.0862 -0.1322
    1DIPC   GL113647  26.775  11.788   5.444 -0.0466  0.2700  0.0084
    1DIPC   GL213648  27.143  11.908   5.462 -0.1743  0.2369  0.1805
    1DIPC   C1A13649  26.539  12.107   5.259 -0.0357 -0.0846 -0.0986
    1DIPC   D2A13650  26.270  12.463   5.138  0.0403 -0.1045  0.3515
    1DIPC   D3A13651  26.227  12.879   5.323 -0.3378  0.0392  0.2993
    1DIPC   C4A13652  26.646  13.055   5.094  0.2772  0.1134 -0.1365
    1DIPC   C1B13653  26.994  11.787   5.027  0.0741 -0.2302 -0.0849
    1DIPC   D2B13654  27.084  11.998   4.635  0.1359 -0.1067 -0.0236
    1DIPC   D3B13655  27.254  11.688   4.565 -0.0880  0.1904 -0.0808
    1DIPC   C4B13656  27.412  11.615   4.148  0.0217  0.0507  0.1394
    1DIPC   NC313657  24.621   9.127   6.650 -0.0809  0.1822  0.0349
    1DIPC   PO413658  24.522   8.880   6.201  0.0085  0.2562 -0.1282
    1DIPC   GL113659  24.359   8.465   6.018 -0.0892  0.0424 -0.3638
    1DIPC   GL213660  24.178   8.504   5.785 -0.1195 -0.0770  0.1180
    1DIPC   C1A13661  24.443   8.058   5.788  0.0630  0.0334 -0.4526
    1DIPC   D2A13662  24.358   7.878   5.407  0.0411 -0.0849 -0.1987
    1DIPC   D3A13663  24.462   7.860   4.954 -0.1157  0.1443 -0.0406
    1DIPC   C4A13664  24.817   7.677   4.719 -0.0970 -0.0508  0.0226
    1DIPC   C1B13665  24.033   8.677   5.410  0.5052 -0.1294 -0.0993
    1DIPC   D2B13666  24.067   8.596   5.012 -0.0232  0.0288  0.1472
    1DIPC   D3B13667  24.305   8.814   4.665  0.2367  0.0292 -0.0313
    1DIPC   C4B13668  24.710   8.821   4.586  0.2886 -0.1526  0.0266
    1DIPC   NC313669  22.729  20.796   6.623 -0.0568 -0.1226  0.1255
    1DIPC   PO413670  22.394  20.520   6.573  0.0988 -0.1274  0.0889
    1DIPC   GL113671  22.272  20.319   6.192 -0.0599 -0.0351  0.0493
    1DIPC   GL213672  21.998  20.364   6.268  0.1125  0.1918 -0.2203
    1DIPC   C1A13673  22.195  19.985   5.997 -0.2193 -0.1051  0.0847
    1DIPC   D2A13674  22.257  19.972   5.615 -0.1279  0.0304 -0.0139
    1DIPC   D3A13675  22.519  20.211   5.302  0.3043 -0.0683 -0.2364
    1DIPC   C4A13676  22.498  20.206   4.737  0.3197  0.3317  0.1320
    1DIPC   C1B13677  21.938  20.401   5.863 -0.0906 -0.1315 -0.1834
    1DIPC   D2B13678  22.073  20.359   5.467 -0.0429  0.0639  0.0130
    1DIPC   D3B13679  22.470  20.546   5.666 -0.2669  0.0648  0.0000
    1DIPC   C4B13680  22.314  20.742   6.013 -0.1869  0.2025 -0.0797
    1CHOL   ROH13681  24.922   2.045   3.820  0.1692  0.0681 -0.0494
    1CHOL    R113682  24.935   1.855   4.030  0.1678  0.1131 -0.0088
    1CHOL    R213683  24.949   1.929   4.296 -0.0177  0.1689 -0.0145
    1CHOL    R313684  24.731   1.767   4.319  0.0652  0.0454 -0.1019
    1CHOL    R413685  24.826   1.804   4.594 -0.0038  0.0117 -0.0741
    1CHOL    R513686  24.789   1.614   4.494  0.1163  0.0230 -0.1385
    1CHOL    C113687  24.550   1.580   4.789  0.0824 -0.1957 -0.1902
    1CHOL    C213688  24.356   1.783   4.937  0.5560  0.1138 -0.2172
    1CHOL   ROH13689   7.954  23.147   5.464 -0.1363 -0.3779 -0.0410
    1CHOL    R113690   7.824  23.124   5.214 -0.0823 -0.1812 -0.0875
    1CHOL    R213691   7.682  23.332   5.100  0.0905 -0.0365 -0.0377
    1CHOL    R313692   7.846  23.286   4.888  0.1177 -0.0558 -0.0120
    1CHOL    R413693   7.599  23.391   4.770  0.1881  0.0725 -0.0427
    1CHOL    R513694   7.700  23.205   4.717  0.1225  0.0448 -0.0627
    1CHOL    C113695   7.705  23.382   4.379  0.2705  0.1190 -0.0213
    1CHOL    C213696   7.766  23.673   4.144 -0.0594  0.2981 -0.0479
    1CHOL   ROH13697  12.599   3.010   4.167 -0.0542  0.0443  0.1353
    1CHOL    R113698  12.534   3.082   4.432 -0.0777 -0.2705  0.2155
    1CHOL    R213699  12.627   2.942   4.651  0.3627 -0.1963  0.0773
    1CHOL    R313700  12.717   3.187   4.730 -0.1551 -0.0390  0.1827
    1CHOL    R413701  12.770   3.011   4.958  0.4678 -0.0845  0.0036
    1CHOL    R513702  12.660   3.199   4.962  0.0181 -0.3511  0.2422
    1CHOL    C113703  12.937   3.281   5.211  0.0423  0.1283  0.0593
    1CHOL    C213704  13.221   3.428   5.459  0.0384  0.0115 -0.0431
    1CHOL   ROH13705   8.921  15.268   5.962  0.2191 -0.0349  0.1089
    1CHOL    R113706   9.080  15.164   5.752  0.1841 -0.0052  0.0675
    1CHOL    R213707   9.008  14.941   5.607  0.1671  0.0050  0.0593
    1CHOL    R313708   9.043  15.107   5.395  0.1173  0.0282  0.0689
    1CHOL    R413709   9.027  14.839   5.278 -0.0391  0.0539  0.0319
    1CHOL    R513710   9.186  14.985   5.247 -0.0029  0.0024 -0.0253
    1CHOL    C113711   9.071  14.935   4.886 -0.2063  0.1033  0.0256
    1CHOL    C213712   8.950  14.954   4.589 -0.0800  0.2033 -0.1441
    1CHOL   ROH13713   5.182  24.487   5.475  0.2169 -0.1939  0.0464
    1CHOL    R113714   5.090  24.640   5.255  0.0060 -0.2241  0.1149
    1CHOL    R213715   5.246  24.690   5.033 -0.0257  0.1776  0.1821
    1CHOL    R313716   5.033  24.585   4.900  0.1864 -0.1109  0.0690
    1CHOL    R413717   5.209  24.689   4.689  0.0415  0.3538  0.1743
    1CHOL    R513718   4.998  24.736   4.717 -0.0486 -0.0439  0.1681
    1CHOL    C113719   4.988  24.590   4.364  0.2797  0.1852  0.0635
    1CHOL    C213720   4.807  24.791   4.058 -0.2801 -0.2768  0.1984
    1CHOL   ROH13721  18.703   9.603   5.813 -0.1079  0.1581 -0.1229
    1CHOL    R113722  18.754   9.673   5.543  0.1240 -0.0491 -0.1328
    1CHOL    R213723  18.785   9.484   5.344 -0.1420 -0.1883 -0.0407
    1CHOL    R313724  18.589   9.628   5.223  0.1672  0.1180 -0.1783
    1CHOL    R413725  18.727   9.491   5.003 -0.2966 -0.6013 -0.0229
    1CHOL    R513726  18.689   9.705   5.019  0.2642 -0.4759 -0.3560
    1CHOL    C113727  18.510   9.630   4.691 -0.0967 -0.5544 -0.1419
    1CHOL    C213728  18.652   9.789   4.523 -0.2914  0.0082 -0.0933
    1CHOL   ROH13729   7.785   1.174   5.032 -0.3135 -0.3060  0.2078
    1CHOL    R113730   8.007   1.167   5.208 -0.1578 -0.3949  0.0076
    1CHOL    R213731   7.987   1.235   5.475  0.1847 -0.0457 -0.0544
    1CHOL    R313732   8.098   0.989   5.512 -0.1142 -0.1520  0.1368
    1CHOL    R413733   8.205   1.153   5.731  0.3915 -0.0061 -0.2179
    1CHOL    R513734   8.320   1.035   5.588  0.0467 -0.3618 -0.2053
    1CHOL    C113735   8.436   0.875   5.915  0.2322 -0.0829 -0.1328
    1CHOL    C213736   8.599   1.138   6.205 -0.0374  0.3367  0.0987
    1CHOL   ROH13737   9.676   1.543   5.571  0.0630 -0.0201  0.0499
    1CHOL    R113738   9.415   1.516   5.467 -0.0176  0.1123  0.2179
    1CHOL    R213739   9.355   1.346   5.258 -0.1588  0.4639 -0.0293
    1CHOL    R313740   9.171   1.248   5.433  0.0040  0.1269 -0.0461
    1CHOL    R413741   9.061   1.188   5.168 -0.0172  0.2148 -0.0575
    1CHOL    R513742   8.960   1.294   5.329 -0.0811 -0.0210  0.0582
    1CHOL    C113743   8.717   1.005   5.279  0.2173 -0.2466 -0.0897
    1CHOL    C213744   8.422   0.896   5.132 -0.0488 -0.0438 -0.1535
    1CHOL   ROH13745  10.851   8.752   3.726 -0.0289  0.0519  0.1424
    1CHOL    R113746  10.992   8.699   3.966 -0.0219  0.0529  0.1388
    1CHOL    R213747  10.956   8.847   4.196 -0.1333 -0.0460  0.1861
    1CHOL    R313748  10.907   8.604   4.307 -0.0024 -0.1132  0.0976
    1CHOL    R413749  10.999   8.771   4.530 -0.3471 -0.0701  0.2084
    1CHOL    R513750  11.081   8.578   4.470 -0.1159  0.0172  0.2403
    1CHOL    C113751  10.979   8.498   4.829 -0.3488 -0.1463  0.1387
    1CHOL    C213752  11.325   8.376   5.043 -0.0823  0.0573 -0.1209
    1CHOL   ROH13753  11.803  15.643   2.813  0.1532 -0.1030  0.0830
    1CHOL    R113754  11.676  15.690   3.061  0.1111 -0.2022  0.0803
    1CHOL    R213755  11.735  15.544   3.288  0.2987 -0.0830  0.1081
    1CHOL    R313756  11.779  15.789   3.396  0.0104 -0.0083  0.0533
    1CHOL    R413757  11.779  15.606   3.625  0.2213  0.0429  0.0947
    1CHOL    R513758  11.657  15.786   3.602  0.0110 -0.1035  0.0523
    1CHOL    C113759  11.845  15.874   3.923 -0.0956  0.1882  0.0353
    1CHOL    C213760  11.899  15.976   4.378 -0.1059 -0.1331  0.0255
    1CHOL   ROH13761  21.040   8.183   5.759  0.0460 -0.0526 -0.1227
    1CHOL    R113762  21.182   8.234   5.519  0.0811 -0.1168 -0.1156
    1CHOL    R213763  21.279   8.032   5.358 -0.0188 -0.1614 -0.1198
    1CHOL    R313764  21.138   8.161   5.165  0.0563 -0.0805 -0.1201
    1CHOL    R413765  21.368   8.045   5.024 -0.0248 -0.2346 -0.1245
    1CHOL    R513766  21.305   8.254   5.021  0.1087 -0.1941 -0.1323
    1CHOL    C113767  21.286   8.174   4.648  0.0398 -0.2013 -0.1272
    1CHOL    C213768  21.514   7.995   4.513  0.0572  0.0071 -0.0185
    1CHOL   ROH13769   6.057  19.944   5.150 -0.0329  0.1099 -0.0285
    1CHOL    R113770   6.068  19.697   5.012 -0.0637  0.0124  0.1428
    1CHOL    R213771   6.193  19.668   4.768 -0.3890 -0.0903 -0.0126
    1CHOL    R313772   6.327  19.470   4.896 -0.0773  0.0964 -0.0522
    1CHOL    R413773   6.321  19.386   4.615 -0.5076 -0.1688  0.0360
    1CHOL    R513774   6.256  19.269   4.787 -0.1621 -0.0391  0.2558
    1CHOL    C113775   6.523  19.036   4.646 -0.2833 -0.0419  0.0269
    1CHOL    C213776   6.571  18.687   4.411 -0.1192 -0.1647 -0.0440
    1CHOL   ROH13777  14.160  17.774   6.086 -0.0822  0.0256 -0.0350
    1CHOL    R113778  14.240  17.889   5.840 -0.2060  0.1755 -0.0048
    1CHOL    R213779  14.377  17.747   5.647  0.0980  0.4224  0.0294
    1CHOL    R313780  14.174  17.831   5.487  0.0026  0.0805 -0.0277
    1CHOL    R413781  14.399  17.783   5.304  0.1278  0.4368  0.0327
    1CHOL    R513782  14.282  17.966   5.321 -0.1760  0.2470 -0.0083
    1CHOL    C113783  14.221  17.882   4.953  0.0564  0.1244 -0.0190
    1CHOL    C213784  14.035  17.893   4.554 -0.0876  0.1202 -0.0115
    1CHOL   ROH13785  19.521  21.616   4.791  0.2209 -0.0941 -0.0182
    1CHOL    R113786  19.418  21.352   4.788  0.2041 -0.0887 -0.0012
    1CHOL    R213787  19.161  21.294   4.707  0.1643 -0.0651  0.1085
    1CHOL    R313788  19.287  21.122   4.538  0.0784 -0.0531  0.0321
    1CHOL    R413789  19.013  21.020   4.557  0.0267  0.0706 -0.0079
    1CHOL    R513790  19.196  20.907   4.594 -0.0277 -0.0334 -0.0591
    1CHOL    C113791  19.045  20.699   4.312 -0.1326  0.1628 -0.1475
    1CHOL    C213792  18.843  20.389   4.375  0.0497  0.0442 -0.0819
    1CHOL   ROH13793  11.019  15.928   2.659 -0.0279  0.0774 -0.0296
    1CHOL    R113794  10.955  16.053   2.905  0.0496  0.0105  0.0242
    1CHOL    R213795  10.778  15.943   3.086 -0.0746  0.0795 -0.0559
    1CHOL    R313796  10.986  15.972   3.259 -0.0723 -0.1944 -0.0120
    1CHOL    R413797  10.748  15.962   3.430 -0.1216  0.1140 -0.0619
    1CHOL    R513798  10.902  16.117   3.430  0.0806 -0.0858 -0.0279
    1CHOL    C113799  10.926  16.000   3.792 -0.1472 -0.1236 -0.0242
    1CHOL    C213800  10.957  16.190   4.027  0.0852 -0.0459 -0.0019
    1CHOL   ROH13801  19.097  16.547   2.681  0.0212 -0.1306 -0.0969
    1CHOL    R113802  19.154  16.562   2.958 -0.0744  0.0830 -0.0889
    1CHOL    R213803  19.013  16.725   3.130 -0.4170 -0.1100 -0.1865
    1CHOL    R313804  18.977  16.494   3.269 -0.0232 -0.1225 -0.1049
    1CHOL    R413805  18.945  16.706   3.469 -0.4358 -0.1040 -0.1900
    1CHOL    R513806  19.080  16.536   3.481 -0.1307  0.1421 -0.1040
    1CHOL    C113807  18.873  16.478   3.796 -0.0766 -0.1121 -0.1153
    1CHOL    C213808  18.823  16.419   4.233  0.0024  0.0135  0.1635
    1CHOL   ROH13809   8.489  17.436   2.794 -0.0640 -0.1520 -0.1715
    1CHOL    R113810   8.371  17.346   3.035  0.1020 -0.2537 -0.1274
    1CHOL    R213811   8.519  17.244   3.244  0.2965  0.1474 -0.0671
    1CHOL    R313812   8.389  17.435   3.387 -0.0828 -0.0274 -0.1746
    1CHOL    R413813   8.423  17.212   3.575  0.3762  0.1516 -0.0435
    1CHOL    R513814   8.236  17.312   3.525  0.1707 -0.2546 -0.0945
    1CHOL    C113815   8.246  17.373   3.902  0.0674 -0.0102 -0.1307
    1CHOL    C213816   7.928  17.546   4.028  0.1348  0.2025 -0.3067
    1CHOL   ROH13817  10.840   1.388   3.648 -0.1041 -0.0316 -0.1795
    1CHOL    R113818  10.639   1.305   3.830  0.0072 -0.1279 -0.1004
    1CHOL    R213819  10.680   1.105   4.015  0.1908 -0.0775 -0.0859
    1CHOL    R313820  10.597   1.295   4.191  0.1352 -0.1031 -0.0845
    1CHOL    R413821  10.570   1.042   4.337 -0.2599 -0.1601 -0.2549
    1CHOL    R513822  10.415   1.193   4.308 -0.0968 -0.0127 -0.3653
    1CHOL    C113823  10.428   1.184   4.689 -0.5757 -0.2320 -0.3524
    1CHOL    C213824  10.430   1.115   5.018 -0.0958 -0.0105  0.0016
    1CHOL   ROH13825  11.988  16.102   2.820  0.0902  0.2919  0.1322
    1CHOL    R113826  11.929  16.073   3.095 -0.1106  0.3004  0.0906
    1CHOL    R213827  12.122  16.094   3.291 -0.1826 -0.0821  0.2049
    1CHOL    R313828  11.952  16.280   3.394  0.0657  0.1689  0.1693
    1CHOL    R413829  12.117  16.196   3.622 -0.2475 -0.2317  0.2502
    1CHOL    R513830  11.899  16.198   3.612 -0.2389  0.1545  0.0904
    1CHOL    C113831  11.954  16.430   3.910 -0.0510 -0.0843  0.2431
    1CHOL    C213832  11.990  16.422   4.281  0.0220 -0.0929  0.0725
    1CHOL   ROH13833   6.047  27.662   3.393  0.0321  0.0907  0.0814
    1CHOL    R113834   6.174  27.673   3.646  0.0503  0.0668  0.0734
    1CHOL    R213835   6.032  27.688   3.882  0.0646 -0.0505  0.0905
    1CHOL    R313836   6.180  27.470   3.948  0.1513 -0.0143  0.0164
    1CHOL    R413837   6.010  27.518   4.182 -0.0086 -0.2785 -0.0439
    1CHOL    R513838   6.227  27.498   4.181  0.0041 -0.1554  0.0639
    1CHOL    C113839   6.135  27.213   4.418  0.0301 -0.3768 -0.1914
    1CHOL    C213840   6.366  27.142   4.793 -0.0666  0.1059 -0.4277
    1CHOL   ROH13841  14.210   8.665   3.225 -0.1098 -0.2443  0.0834
    1CHOL    R113842  14.388   8.685   3.443 -0.0873  0.0124  0.0414
    1CHOL    R213843  14.381   8.896   3.622 -0.3139  0.0285  0.0134
    1CHOL    R313844  14.362   8.696   3.806 -0.0218  0.0302  0.0459
    1CHOL    R413845  14.340   8.944   3.962 -0.2613  0.0257  0.0200
    1CHOL    R513846  14.480   8.780   3.997 -0.0582  0.1941 -0.0033
    1CHOL    C113847  14.299   8.785   4.333  0.0440  0.0257  0.0546
    1CHOL    C213848  14.287   9.132   4.394  0.0478  0.1339 -0.2662
    1CHOL   ROH13849   2.595  15.934   2.607 -0.3115  0.0495 -0.0924
    1CHOL    R113850   2.634  15.755   2.823 -0.1980  0.1516 -0.0279
    1CHOL    R213851   2.605  15.831   3.087 -0.3970  0.1888 -0.0609
    1CHOL    R313852   2.432  15.621   3.095 -0.1606 -0.0047 -0.0772
    1CHOL    R413853   2.553  15.630   3.362 -0.1727  0.1116 -0.0752
    1CHOL    R513854   2.545  15.457   3.229  0.0224  0.1121 -0.0874
    1CHOL    C113855   2.361  15.315   3.531  0.1795 -0.1161 -0.0990
    1CHOL    C213856   2.348  15.318   3.889 -0.0489 -0.2230 -0.2019
    1CHOL   ROH13857  12.255  17.214   2.912 -0.2567 -0.2561 -0.1041
    1CHOL    R113858  12.325  17.252   3.183 -0.1163 -0.1898 -0.1490
    1CHOL    R213859  12.290  17.493   3.314 -0.1307 -0.1818 -0.1656
    1CHOL    R313860  12.152  17.340   3.491  0.0242 -0.2070 -0.0646
    1CHOL    R413861  12.260  17.560   3.652 -0.1340 -0.0324 -0.1960
    1CHOL    R513862  12.283  17.347   3.691  0.0505  0.0067 -0.0890
    1CHOL    C113863  12.113  17.456   4.015  0.0089  0.0312 -0.1187
    1CHOL    C213864  11.863  17.349   4.379  0.0668  0.2181 -0.0445
    1CHOL   ROH13865  18.249  14.677   6.123 -0.0032 -0.0633 -0.0388
    1CHOL    R113866  18.243  14.762   5.852 -0.0134 -0.1626 -0.0699
    1CHOL    R213867  18.431  14.934   5.746 -0.1563 -0.0110 -0.0772
    1CHOL    R313868  18.461  14.735   5.562  0.0952 -0.0453  0.0003
    1CHOL    R413869  18.526  14.982   5.417 -0.0753 -0.0339 -0.0565
    1CHOL    R513870  18.380  14.831   5.358  0.0858 -0.1869 -0.0622
    1CHOL    C113871  18.609  14.824   5.053  0.2100 -0.0786  0.0280
    1CHOL    C213872  18.544  14.874   4.653  0.1458 -0.0184  0.0863
    1CHOL   ROH13873  23.784  18.604   3.205 -0.0943 -0.2646 -0.0682
    1CHOL    R113874  23.830  18.599   3.484 -0.0019  0.0248 -0.0783
    1CHOL    R213875  23.692  18.432   3.655  0.0679  0.1880  0.1383
    1CHOL    R313876  23.941  18.355   3.730  0.0976  0.2797  0.1328
    1CHOL    R413877  23.770  18.283   3.957  0.1068  0.0868  0.0786
    1CHOL    R513878  23.950  18.405   3.965  0.0429  0.1764  0.1571
    1CHOL    C113879  24.050  18.124   4.204  0.1607  0.1173  0.0387
    1CHOL    C213880  24.360  18.014   4.561  0.1728  0.0346  0.1436
    1CHOL   ROH13881   8.262  27.862   6.393  0.3882 -0.1593  0.0295
    1CHOL    R113882   8.267  28.080   6.213  0.1211 -0.1144  0.0765
    1CHOL    R213883   8.498  28.165   6.088  0.0064  0.1543  0.0459
    1CHOL    R313884   8.349  28.132   5.863 -0.0076  0.0475  0.0706
    1CHOL    R413885   8.545  28.339   5.793  0.0401 -0.0410 -0.0639
    1CHOL    R513886   8.329  28.353   5.772  0.0424 -0.0019 -0.0668
    1CHOL    C113887   8.434  28.409   5.410  0.0459 -0.2542 -0.1049
    1CHOL    C213888   8.558  28.577   4.989  0.1786 -0.1882 -0.2126
    1CHOL   ROH13889  17.056  15.212   2.483  0.1927  0.1890 -0.0807
    1CHOL    R113890  17.041  15.165   2.762  0.0916  0.1669 -0.0900
    1CHOL    R213891  17.252  15.061   2.907  0.0238  0.1125 -0.0306
    1CHOL    R313892  17.215  15.282   3.059  0.0183  0.1057 -0.0223
    1CHOL    R413893  17.317  15.080   3.246 -0.0467  0.0796 -0.0149
    1CHOL    R513894  17.134  15.198   3.269 -0.0391  0.1001 -0.0463
    1CHOL    C113895  17.319  15.299   3.586 -0.0953  0.0547  0.0018
    1CHOL    C213896  17.390  15.133   3.897 -0.0392 -0.2003  0.0523
    1CHOL   ROH13897  15.867   4.937   5.939  0.0382 -0.1360 -0.0980
    1CHOL    R113898  15.780   5.073   5.707  0.1073 -0.0620 -0.0811
    1CHOL    R213899  15.519   5.158   5.673  0.1076 -0.0886 -0.1507
    1CHOL    R313900  15.636   5.399   5.629  0.0895 -0.0540 -0.0148
    1CHOL    R413901  15.366   5.426   5.518  0.1202 -0.0460 -0.0892
    1CHOL    R513902  15.554   5.467   5.414  0.1478  0.0224 -0.0134
    1CHOL    C113903  15.388   5.809   5.386  0.1104  0.0112  0.0743
    1CHOL    C213904  15.352   6.054   5.112 -0.0467 -0.1167  0.1957
    1CHOL   ROH13905  13.673  27.691   3.886  0.1306 -0.1452  0.2724
    1CHOL    R113906  13.637  27.930   4.034  0.1483 -0.1268  0.2470
    1CHOL    R213907  13.433  28.109   3.980  0.2787 -0.0206  0.1006
    1CHOL    R313908  13.377  28.074   4.244  0.0711  0.0092  0.0604
    1CHOL    R413909  13.273  28.341   4.180 -0.1774 -0.1345 -0.1338
    1CHOL    R513910  13.411  28.291   4.341 -0.2699  0.0820  0.0150
    1CHOL    C113911  13.126  28.444   4.543 -0.6375 -0.1740 -0.3083
    1CHOL    C213912  13.042  28.846   4.471  0.1501 -0.5653 -0.4253
    1CHOL   ROH13913  15.251  18.079   6.368 -0.0776 -0.1342  0.0250
    1CHOL    R113914  15.277  18.149   6.095 -0.3181  0.0315  0.0436
    1CHOL    R213915  15.422  17.996   5.916  0.0735  0.4915 -0.0330
    1CHOL    R313916  15.190  18.000   5.775  0.0373 -0.1024  0.0092
    1CHOL    R413917  15.401  18.002   5.571 -0.0024  0.5407 -0.0279
    1CHOL    R513918  15.236  18.143   5.588 -0.3896  0.0820  0.0443
    1CHOL    C113919  15.172  18.008   5.238 -0.0808  0.0102  0.0151
    1CHOL    C213920  15.364  18.055   5.086  0.2946  0.3291  0.1384
    1CHOL   ROH13921  11.891  25.221   3.082 -0.0328 -0.4297 -0.0407
    1CHOL    R113922  11.684  25.217   3.275 -0.0253 -0.2127 -0.0277
    1CHOL    R213923  11.610  24.987   3.409 -0.1247 -0.0948  0.1200
    1CHOL    R313924  11.654  25.140   3.629 -0.0434  0.0227  0.0220
    1CHOL    R413925  11.534  24.893   3.732 -0.0010  0.0753  0.1991
    1CHOL    R513926  11.465  25.096   3.770  0.0100  0.0973  0.1168
    1CHOL    C113927  11.531  24.982   4.128  0.1483  0.2874  0.1532
    1CHOL    C213928  11.139  24.932   4.269 -0.0742  0.1388  0.1303
    1CHOL   ROH13929  18.374  27.513   4.138  0.2286 -0.0729 -0.0770
    1CHOL    R113930  18.588  27.551   4.319  0.1812 -0.1040 -0.0153
    1CHOL    R213931  18.615  27.402   4.551  0.0921 -0.1095 -0.0073
    1CHOL    R313932  18.862  27.351   4.450  0.1132 -0.1458  0.0645
    1CHOL    R413933  18.908  27.414   4.733  0.0429 -0.1354  0.0739
    1CHOL    R513934  19.005  27.507   4.562  0.1030 -0.1574  0.0958
    1CHOL    C113935  19.311  27.372   4.746  0.0356 -0.1862  0.1888
    1CHOL    C213936  19.383  27.557   4.997 -0.0553  0.1985  0.2127
    1CHOL   ROH13937   8.652  22.799   2.644 -0.1375  0.0813 -0.0134
    1CHOL    R113938   8.677  22.916   2.901 -0.2265  0.0134  0.0266
    1CHOL    R213939   8.500  22.862   3.106 -0.1709 -0.2122  0.0163
    1CHOL    R313940   8.726  22.797   3.241 -0.1084 -0.0652 -0.0172
    1CHOL    R413941   8.517  22.810   3.447 -0.1140 -0.3347 -0.0052
    1CHOL    R513942   8.708  22.917   3.448 -0.2084 -0.1650  0.0315
    1CHOL    C113943   8.740  22.719   3.773 -0.0216 -0.2677 -0.0494
    1CHOL    C213944   8.515  22.546   3.964 -0.2946  0.0243 -0.0328
    1CHOL   ROH13945   5.066  18.797   5.486  0.0761  0.0097  0.0076
    1CHOL    R113946   4.964  18.766   5.224  0.1760  0.0277 -0.0329
    1CHOL    R213947   4.711  18.850   5.152  0.2063  0.0382 -0.1259
    1CHOL    R313948   4.846  18.985   4.959  0.2849  0.0436 -0.0671
    1CHOL    R413949   4.584  18.926   4.839  0.2961  0.1383 -0.1380
    1CHOL    R513950   4.780  18.879   4.754  0.3030  0.1049 -0.1042
    1CHOL    C113951   4.637  19.098   4.476  0.4219  0.2001 -0.0903
    1CHOL    C213952   4.324  18.781   4.385  0.2228  0.2214  0.2141
    1CHOL   ROH13953  28.117  12.607   3.223 -0.1624 -0.1137 -0.1401
    1CHOL    R113954  28.284  12.461   3.399 -0.1469 -0.1307 -0.1690
    1CHOL    R213955  28.276  12.492   3.673 -0.0068 -0.0360 -0.1757
    1CHOL    R313956  28.239  12.223   3.671 -0.1277 -0.0192 -0.0688
    1CHOL    R413957  28.314  12.286   3.947  0.1755  0.0191 -0.1603
    1CHOL    R513958  28.409  12.139   3.817 -0.0191 -0.0567 -0.2164
    1CHOL    C113959  28.302  11.913   4.105  0.1675  0.0657 -0.0509
    1CHOL    C213960  28.632  11.770   4.217  0.2578 -0.0497 -0.5830
    1CHOL   ROH13961  23.189  19.323   3.417  0.0166  0.0355 -0.1214
    1CHOL    R113962  23.261  19.392   3.682  0.2069 -0.0505 -0.1504
    1CHOL    R213963  23.120  19.303   3.902  0.1000  0.2395 -0.1008
    1CHOL    R313964  23.364  19.213   3.982 -0.0412 -0.1888 -0.1472
    1CHOL    R413965  23.186  19.161   4.210 -0.0219  0.4253  0.0117
    1CHOL    R513966  23.374  19.271   4.215  0.2146  0.0362 -0.2141
    1CHOL    C113967  23.454  18.994   4.465 -0.2234  0.1318  0.0333
    1CHOL    C213968  23.602  19.155   4.734 -0.2531  0.1826 -0.2706
    1CHOL   ROH13969  13.638  14.309   2.919  0.2354  0.2519 -0.0247
    1CHOL    R113970  13.601  14.403   3.183  0.1631  0.1278  0.0097
    1CHOL    R213971  13.481  14.251   3.380  0.1861  0.0033 -0.0724
    1CHOL    R313972  13.710  14.305   3.516  0.1472  0.0244 -0.0150
    1CHOL    R413973  13.523  14.210   3.721  0.0920  0.0439 -0.0561
    1CHOL    R513974  13.635  14.397   3.724  0.0868  0.0467 -0.0466
    1CHOL    C113975  13.761  14.238   4.047  0.0005  0.0875  0.0072
    1CHOL    C213976  14.012  14.306   4.365  0.5476  0.2214 -0.0115
    1CHOL   ROH13977  15.907   9.710   6.240 -0.0499  0.1359 -0.0457
    1CHOL    R113978  15.837   9.650   5.973  0.1750  0.0515 -0.0861
    1CHOL    R213979  15.619   9.763   5.847  0.0766 -0.2520 -0.1919
    1CHOL    R313980  15.804   9.832   5.660  0.0754  0.0255 -0.0912
    1CHOL    R413981  15.580   9.721   5.506  0.1764  0.0234 -0.2377
    1CHOL    R513982  15.789   9.659   5.495  0.2165  0.1607 -0.2463
    1CHOL    C113983  15.731   9.761   5.132  0.2337  0.4434 -0.1698
    1CHOL    C213984  15.411   9.634   4.956 -0.1080  0.2407  0.0174
    1CHOL   ROH13985  10.789  14.731   2.976 -0.1055 -0.2455 -0.0819
    1CHOL    R113986  10.625  14.740   3.207  0.0315 -0.1421  0.0116
    1CHOL    R213987  10.710  14.647   3.453  0.1957  0.0165  0.0147
    1CHOL    R313988  10.639  14.896   3.536  0.1981  0.0513 -0.0875
    1CHOL    R413989  10.710  14.753   3.782  0.1779  0.1464 -0.0266
    1CHOL    R513990  10.523  14.859   3.742  0.1836  0.1369 -0.0805
    1CHOL    C113991  10.642  15.048   4.051  0.1702  0.2533 -0.1467
    1CHOL    C213992  10.652  15.174   4.288  0.1382  0.2883  0.1938
    1CHOL   ROH13993   5.971  13.815   5.503  0.0167  0.0425 -0.0332
    1CHOL    R113994   6.059  13.546   5.491 -0.0465  0.0205 -0.0103
    1CHOL    R213995   6.286  13.470   5.353 -0.1134 -0.0564 -0.0777
    1CHOL    R313996   6.355  13.359   5.592 -0.0505 -0.0229 -0.0802
    1CHOL    R413997   6.498  13.200   5.392  0.0710  0.0868 -0.0813
    1CHOL    R513998   6.366  13.124   5.547  0.1147 -0.0138 -0.0930
    1CHOL    C113999   6.686  12.938   5.638  0.2377  0.2022 -0.0857
    1CHOL    C214000   6.734  12.655   5.435  0.3731 -0.1158  0.1209
    1CHOL   ROH14001  19.605  19.927   3.344  0.2535  0.1913  0.1836
    1CHOL    R114002  19.483  19.792   3.560  0.1230  0.1593  0.0887
    1CHOL    R214003  19.607  19.587   3.697 -0.0036  0.0633  0.0633
    1CHOL    R314004  19.551  19.742   3.914 -0.0302  0.0073  0.0970
    1CHOL    R414005  19.610  19.477   4.024 -0.0935 -0.0334  0.0310
    1CHOL    R514006  19.431  19.596   4.061 -0.0839 -0.0200  0.0265
    1CHOL    C114007  19.559  19.557   4.419 -0.1707 -0.1449  0.0436
    1CHOL    C214008  19.382  19.287   4.589  0.0470  0.0038 -0.1013
    1CHOL   ROH14009  15.975  21.211   6.412 -0.1524  0.1644 -0.1517
    1CHOL    R114010  15.912  21.155   6.142 -0.0052 -0.1669 -0.1175
    1CHOL    R214011  15.921  21.347   5.944 -0.3940 -0.2915 -0.2573
    1CHOL    R314012  16.084  21.167   5.822  0.0014 -0.0329 -0.1085
    1CHOL    R414013  16.039  21.375   5.621 -0.2251 -0.1564 -0.1841
    1CHOL    R514014  16.007  21.161   5.596  0.1659 -0.2174 -0.1597
    1CHOL    C114015  16.260  21.223   5.317  0.2458  0.1656 -0.0023
    1CHOL    C214016  16.479  21.197   5.026 -0.0864 -0.2144 -0.2657
    1CHOL   ROH14017  15.014  10.714   2.692  0.0383 -0.2244  0.0314
    1CHOL    R114018  15.056  10.817   2.952 -0.0873 -0.1426  0.0191
    1CHOL    R214019  14.877  10.776   3.158 -0.1020 -0.2234 -0.0100
    1CHOL    R314020  15.097  10.681   3.287 -0.0636 -0.0456  0.0555
    1CHOL    R414021  14.925  10.783   3.501 -0.1345 -0.0310 -0.0094
    1CHOL    R514022  15.133  10.836   3.466 -0.1597  0.0596 -0.0172
    1CHOL    C114023  15.159  10.698   3.821 -0.1186  0.2473  0.0524
    1CHOL    C214024  15.307  10.751   4.226  0.2333  0.0788 -0.2326
    1CHOL   ROH14025  10.024  14.042   2.950 -0.1772  0.0341 -0.0110
    1CHOL    R114026   9.916  14.217   3.145  0.0644  0.1493  0.0188
    1CHOL    R214027   9.765  14.127   3.358 -0.1616  0.3334 -0.0632
    1CHOL    R314028   9.949  14.264   3.504  0.0298 -0.0408  0.0470
    1CHOL    R414029   9.701  14.283   3.659  0.0401  0.2389  0.0291
    1CHOL    R514030   9.827  14.449   3.595  0.3014  0.0877  0.1509
    1CHOL    C114031   9.836  14.503   3.972  0.3368 -0.1682  0.1867
    1CHOL    C214032   9.729  14.773   4.166  0.0435 -0.0495  0.0087
    1CHOL   ROH14033   7.474  27.267   4.651 -0.0350 -0.0001  0.1884
    1CHOL    R114034   7.540  27.492   4.809 -0.0076  0.0010  0.1760
    1CHOL    R214035   7.664  27.470   5.055  0.0221  0.0015  0.1608
    1CHOL    R314036   7.843  27.642   4.943  0.0140 -0.0068  0.1352
    1CHOL    R414037   7.956  27.577   5.206  0.0219  0.0296  0.1407
    1CHOL    R514038   7.918  27.777   5.126  0.0138  0.0191  0.1173
    1CHOL    C114039   8.294  27.801   5.190  0.0143  0.0383  0.1055
    1CHOL    C214040   8.633  27.990   5.067 -0.1036 -0.2514 -0.1595
    1CHOL   ROH14041  18.574  12.656   6.172  0.0613 -0.1532 -0.1229
    1CHOL    R114042  18.614  12.823   5.947  0.1116 -0.0763 -0.0572
    1CHOL    R214043  18.717  12.729   5.709  0.0412 -0.0235 -0.1083
    1CHOL    R314044  18.492  12.840   5.605  0.0796  0.1221 -0.0367
    1CHOL    R414045  18.676  12.819   5.378 -0.1192 -0.2933 -0.1626
    1CHOL    R514046  18.572  12.999   5.445  0.1287 -0.1159 -0.2503
    1CHOL    C114047  18.441  12.976   5.087 -0.1760 -0.3133 -0.1269
    1CHOL    C214048  18.362  12.864   4.746  0.0033  0.3391 -0.3841
    1CHOL   ROH14049   7.918  13.316   3.333  0.1335 -0.4025  0.0200
    1CHOL    R114050   8.124  13.281   3.524  0.2527 -0.0677 -0.0455
    1CHOL    R214051   8.306  13.479   3.584 -0.0542  0.2299 -0.1002
    1CHOL    R314052   8.221  13.435   3.839  0.0991  0.0886 -0.0744
    1CHOL    R414053   8.452  13.614   3.867 -0.0606  0.3033 -0.1316
    1CHOL    R514054   8.424  13.422   3.967  0.1674  0.2518 -0.1651
    1CHOL    C114055   8.458  13.650   4.271  0.0800  0.2125 -0.1255
    1CHOL    C214056   8.782  13.653   4.490 -0.1753 -0.0693 -0.0152
    1CHOL   ROH14057  15.540   7.099   3.449 -0.1051  0.1069 -0.1327
    1CHOL    R114058  15.622   7.288   3.643 -0.2623  0.1721 -0.1297
    1CHOL    R214059  15.454   7.376   3.845 -0.2465 -0.1847  0.0406
    1CHOL    R314060  15.658   7.295   4.006  0.0229  0.0980 -0.1562
    1CHOL    R414061  15.469   7.429   4.186 -0.1516 -0.4632  0.0796
    1CHOL    R514062  15.682   7.472   4.165 -0.2546  0.0045 -0.0100
    1CHOL    C114063  15.669   7.383   4.536  0.1572 -0.3605 -0.0821
    1CHOL    C214064  15.828   7.496   4.903 -0.1201  0.0091 -0.2306
    1CHOL   ROH14065  15.684  17.188   2.691 -0.2601  0.2215 -0.0074
    1CHOL    R114066  15.865  17.195   2.909 -0.2923 -0.1440  0.0321
    1CHOL    R214067  15.899  17.419   3.066  0.1304 -0.2108  0.0376
    1CHOL    R314068  15.844  17.246   3.268 -0.2668 -0.0977  0.0269
    1CHOL    R414069  15.901  17.501   3.402  0.5507 -0.2937  0.0554
    1CHOL    R514070  15.995  17.309   3.443  0.0119 -0.5798 -0.0407
    1CHOL    C114071  15.850  17.386   3.787  0.4232 -0.2357  0.0560
    1CHOL    C214072  15.768  17.715   4.016  0.0188  0.3143  0.3033
    1CHOL   ROH14073  21.096  12.514   5.870  0.0794 -0.1706  0.0319
    1CHOL    R114074  21.104  12.716   5.672  0.2890 -0.2341 -0.0243
    1CHOL    R214075  21.228  12.680   5.428 -0.0635 -0.5567 -0.1565
    1CHOL    R314076  20.986  12.756   5.330 -0.0116 -0.0613  0.0986
    1CHOL    R414077  21.180  12.852   5.133 -0.0486 -0.7882 -0.2944
    1CHOL    R514078  21.027  12.971   5.232  0.3929 -0.2799 -0.2158
    1CHOL    C114079  20.925  13.024   4.869  0.0090 -0.4595 -0.1354
    1CHOL    C214080  20.977  13.066   4.458 -0.0891  0.0396 -0.1705
    1CHOL   ROH14081  18.628  12.552   2.726  0.1223  0.0233 -0.0551
    1CHOL    R114082  18.689  12.611   2.996 -0.1535  0.1078 -0.0107
    1CHOL    R214083  18.506  12.577   3.201 -0.1951 -0.3238 -0.1184
    1CHOL    R314084  18.705  12.427   3.310  0.0695  0.0868 -0.0345
    1CHOL    R414085  18.513  12.467   3.528 -0.2003 -0.4702 -0.1674
    1CHOL    R514086  18.727  12.511   3.533 -0.3052  0.0277  0.0248
    1CHOL    C114087  18.704  12.262   3.821  0.0459 -0.1706 -0.1168
    1CHOL    C214088  18.783  12.182   4.180 -0.0535 -0.3669 -0.1057
    1CHOL   ROH14089  22.843  16.120   5.558  0.1815 -0.3632  0.0804
    1CHOL    R114090  22.887  16.173   5.284  0.2232 -0.0620  0.1447
    1CHOL    R214091  23.140  16.187   5.173  0.2313 -0.3285  0.1240
    1CHOL    R314092  23.041  16.000   5.002 -0.1070  0.0656 -0.1156
    1CHOL    R414093  23.142  16.214   4.829  0.5150 -0.0086  0.1500
    1CHOL    R514094  22.942  16.128   4.826  0.3099  0.4711 -0.0601
    1CHOL    C114095  23.051  16.054   4.468  0.3635  0.5471 -0.0597
    1CHOL    C214096  23.194  15.822   4.043 -0.2483 -0.1457 -0.0236
    1CHOL   ROH14097  26.223  11.548   5.271  0.0644 -0.1262  0.1370
    1CHOL    R114098  26.306  11.665   5.027 -0.1812 -0.0176  0.1061
    1CHOL    R214099  26.562  11.639   4.929 -0.1775  0.3364  0.0184
    1CHOL    R314100  26.434  11.548   4.707 -0.1279  0.1541  0.0647
    1CHOL    R414101  26.711  11.591   4.621 -0.1249  0.1497  0.0732
    1CHOL    R514102  26.532  11.672   4.527 -0.1278  0.0467 -0.0088
    1CHOL    C114103  26.677  11.477   4.233 -0.0465 -0.1304  0.1485
    1CHOL    C214104  26.962  11.280   3.988  0.0089  0.2455 -0.2033
    1CHOL   ROH14105  20.246   4.823   5.987  0.0884  0.0279 -0.0481
    1CHOL    R114106  20.235   4.828   5.705  0.0381  0.1051 -0.0446
    1CHOL    R214107  20.126   5.040   5.564  0.0025  0.1373  0.0332
    1CHOL    R314108  20.367   5.038   5.438 -0.0208  0.1860 -0.0106
    1CHOL    R414109  20.198   5.212   5.274 -0.1326  0.0248 -0.0675
    1CHOL    R514110  20.312   5.039   5.205 -0.0639  0.0427 -0.0014
    1CHOL    C114111  20.467   5.311   4.986 -0.2299  0.0047 -0.1667
    1CHOL    C214112  20.437   5.476   4.581 -0.1054 -0.0458  0.2288
    1CHOL   ROH14113  18.263  13.804   3.637  0.0401 -0.2572 -0.0640
    1CHOL    R114114  18.051  13.813   3.825  0.1173 -0.3295  0.0268
    1CHOL    R214115  17.789  13.862   3.752  0.1036 -0.1896  0.1669
    1CHOL    R314116  17.743  13.629   3.885  0.0810 -0.2737  0.0119
    1CHOL    R414117  17.482  13.763   3.877  0.1278 -0.1693  0.2420
    1CHOL    R514118  17.584  13.688   4.054  0.1860 -0.3433  0.1352
    1CHOL    C114119  17.260  13.488   4.074  0.1202 -0.2368  0.1404
    1CHOL    C214120  17.064  13.739   4.346  0.1558 -0.0232 -0.2616
    1CHOL   ROH14121  12.868  11.931   6.541  0.0181 -0.0992  0.0451
    1CHOL    R114122  12.819  11.972   6.266  0.0262 -0.0997  0.0432
    1CHOL    R214123  12.802  11.764   6.085 -0.0194 -0.1048  0.0526
    1CHOL    R314124  12.562  11.877   6.026  0.0055 -0.0542  0.0479
    1CHOL    R414125  12.635  11.727   5.785 -0.0715 -0.1569  0.0880
    1CHOL    R514126  12.580  11.938   5.795 -0.0091 -0.1378  0.0246
    1CHOL    C114127  12.312  11.812   5.555 -0.0790 -0.1410  0.1047
    1CHOL    C214128  12.194  11.816   5.184 -0.1001  0.2938  0.1222
    1CHOL   ROH14129   8.387  22.375   5.096  0.1353  0.0365 -0.1393
    1CHOL    R114130   8.453  22.185   4.897 -0.1268 -0.1087 -0.0856
    1CHOL    R214131   8.306  22.155   4.665 -0.0952  0.1103 -0.1336
    1CHOL    R314132   8.548  22.190   4.546  0.0093 -0.3297 -0.0526
    1CHOL    R414133   8.383  22.058   4.343 -0.1850  0.0324 -0.1316
    1CHOL    R514134   8.579  21.993   4.414 -0.3324 -0.3605 -0.0868
    1CHOL    C114135   8.656  22.034   4.043 -0.1392 -0.4277 -0.0544
    1CHOL    C214136   8.504  21.660   3.884  0.0502  0.0382 -0.1056
    1CHOL   ROH14137  10.869  20.479   2.505 -0.0245  0.2444 -0.0584
    1CHOL    R114138  10.956  20.546   2.765 -0.1183  0.0467  0.0235
    1CHOL    R214139  10.798  20.511   2.989 -0.1459 -0.2577 -0.0424
    1CHOL    R314140  11.012  20.369   3.079 -0.0826 -0.2202 -0.1327
    1CHOL    R414141  10.873  20.457   3.322  0.1202 -0.0687 -0.0710
    1CHOL    R514142  11.083  20.487   3.274  0.0839 -0.1106 -0.2594
    1CHOL    C114143  11.117  20.292   3.600  0.3337  0.0743 -0.1725
    1CHOL    C214144  11.305  20.264   3.836 -0.1400  0.0109 -0.0134
    1CHOL   ROH14145  23.117  18.451   3.102  0.1032 -0.1732  0.0152
    1CHOL    R114146  23.062  18.252   3.296 -0.2279 -0.1106 -0.0118
    1CHOL    R214147  23.232  18.200   3.508 -0.2276 -0.5351 -0.1141
    1CHOL    R314148  23.007  18.241   3.656 -0.0646 -0.0885  0.0142
    1CHOL    R414149  23.214  18.171   3.852 -0.0610 -0.3805 -0.0918
    1CHOL    R514150  23.019  18.076   3.828 -0.2451 -0.0486  0.0658
    1CHOL    C114151  22.992  18.192   4.191  0.1880  0.1273  0.0417
    1CHOL    C214152  23.217  17.957   4.351  0.2728 -0.1307 -0.1471
    1CHOL   ROH14153  12.466   7.954   6.801  0.1337  0.3103 -0.1118
    1CHOL    R114154  12.315   7.925   6.563 -0.0505  0.1626  0.0234
    1CHOL    R214155  12.075   8.056   6.523  0.0555  0.3550  0.0133
    1CHOL    R314156  12.197   8.142   6.296 -0.0037 -0.0552 -0.1760
    1CHOL    R414157  11.910   8.151   6.235 -0.0591  0.6404  0.1731
    1CHOL    R514158  12.065   8.050   6.119 -0.4554  0.1965  0.0277
    1CHOL    C114159  11.929   8.288   5.854 -0.1817  0.4204  0.0877
    1CHOL    C214160  11.880   8.266   5.415 -0.0839  0.0960 -0.0340
    1CHOL   ROH14161  10.894  17.624   2.920 -0.0305 -0.0983 -0.0642
    1CHOL    R114162  10.777  17.588   3.175 -0.1249  0.0944 -0.0807
    1CHOL    R214163  10.899  17.443   3.376 -0.3557 -0.0417 -0.0380
    1CHOL    R314164  10.862  17.672   3.519 -0.0743  0.0280 -0.0771
    1CHOL    R414165  10.742  17.460   3.684 -0.1512  0.1745  0.0547
    1CHOL    R514166  10.645  17.645   3.619 -0.0358  0.2384  0.0644
    1CHOL    C114167  10.616  17.684   3.997  0.2324  0.3664  0.0721
    1CHOL    C214168  10.503  17.366   4.139  0.2117 -0.1049 -0.0221
    1CHOL   ROH14169  16.159   8.267   6.156 -0.0648  0.1386 -0.1066
    1CHOL    R114170  16.186   8.312   5.878 -0.0315  0.0405 -0.1192
    1CHOL    R214171  16.356   8.163   5.719 -0.1846 -0.1673 -0.0883
    1CHOL    R314172  16.131   8.123   5.572 -0.2308  0.0166 -0.0687
    1CHOL    R414173  16.349   8.023   5.403 -0.3414 -0.2847 -0.0319
    1CHOL    R514174  16.197   8.170   5.347 -0.1850 -0.1435 -0.0882
    1CHOL    C114175  16.133   7.903   5.082 -0.4752 -0.1800  0.0185
    1CHOL    C214176  16.523   7.816   4.850  0.1355 -0.0457  0.0570
    1CHOL   ROH14177  12.308  14.748   2.927 -0.0853 -0.0936  0.0422
    1CHOL    R114178  12.360  14.625   3.176 -0.2456 -0.0978  0.0733
    1CHOL    R214179  12.554  14.716   3.350 -0.0725 -0.3549  0.0146
    1CHOL    R314180  12.348  14.721   3.527 -0.0361  0.0325  0.0449
    1CHOL    R414181  12.589  14.719   3.694 -0.0162 -0.5255  0.0107
    1CHOL    R514182  12.420  14.581   3.708 -0.3071 -0.1731 -0.0045
    1CHOL    C114183  12.415  14.727   4.060  0.0503 -0.2608  0.0373
    1CHOL    C214184  12.340  14.504   4.475  0.0566  0.2715 -0.4131
    1CHOL   ROH14185   1.931  13.338   5.630 -0.0887  0.0317  0.0243
    1CHOL    R114186   1.986  13.536   5.435 -0.1457 -0.0138 -0.0372
    1CHOL    R214187   2.240  13.585   5.340 -0.1529  0.0643 -0.0164
    1CHOL    R314188   2.123  13.545   5.098 -0.0991 -0.0721 -0.0200
    1CHOL    R414189   2.393  13.640   5.035 -0.1441  0.0610 -0.0124
    1CHOL    R514190   2.205  13.723   4.962 -0.1817 -0.0653 -0.0610
    1CHOL    C114191   2.372  13.634   4.630 -0.0882 -0.0687 -0.0137
    1CHOL    C214192   2.570  13.759   4.417  0.1527  0.2520 -0.1884
    1CHOL   ROH14193  10.754  18.023   5.894  0.0699  0.0289  0.0500
    1CHOL    R114194  10.850  18.112   5.643 -0.0710 -0.0010 -0.0150
    1CHOL    R214195  10.940  17.938   5.449  0.0632 -0.0077  0.0547
    1CHOL    R314196  10.758  18.067   5.294 -0.1003 -0.2723  0.0267
    1CHOL    R414197  10.967  17.980   5.107  0.2079  0.2956  0.1037
    1CHOL    R514198  10.890  18.183   5.131 -0.2279  0.1211  0.2012
    1CHOL    C114199  10.811  18.127   4.762  0.1386  0.2266  0.1053
    1CHOL    C214200  11.063  18.165   4.479  0.0912 -0.1092  0.2618
    1CHOL   ROH14201   3.915  14.965   2.772  0.1482 -0.1556  0.0073
    1CHOL    R114202   3.964  14.935   3.049  0.0738 -0.1144  0.0249
    1CHOL    R214203   3.968  15.149   3.223 -0.0688 -0.0996  0.0094
    1CHOL    R314204   3.784  15.002   3.358 -0.0504 -0.1646 -0.0366
    1CHOL    R414205   3.842  15.228   3.536 -0.3113 -0.0458 -0.1013
    1CHOL    R514206   3.852  15.016   3.588 -0.1988 -0.0162 -0.0014
    1CHOL    C114207   3.596  15.135   3.844 -0.4348 -0.0760 -0.2091
    1CHOL    C214208   3.812  15.395   4.064  0.0655  0.0960  0.1212
    1CHOL   ROH14209  10.490   9.862   3.306  0.0486  0.3044 -0.0342
    1CHOL    R114210  10.423  10.001   3.544  0.0319  0.2117  0.0154
    1CHOL    R214211  10.313   9.875   3.763  0.0072  0.1272 -0.0448
    1CHOL    R314212  10.522   9.989   3.894 -0.0009  0.0687  0.0196
    1CHOL    R414213  10.347   9.890   4.107 -0.0849  0.1016 -0.0348
    1CHOL    R514214  10.423  10.093   4.086 -0.0286  0.0834 -0.0029
    1CHOL    C114215  10.563  10.005   4.430 -0.1468  0.0310  0.0318
    1CHOL    C214216  10.633  10.018   4.716 -0.0914  0.3521 -0.0630
    1CHOL   ROH14217   8.393   1.786   6.559 -0.0376  0.1156  0.0085
    1CHOL    R114218   8.568   2.006   6.525  0.0119  0.0223 -0.3490
    1CHOL    R214219   8.644   2.099   6.276 -0.4906  0.0145 -0.5071
    1CHOL    R314220   8.550   2.336   6.371 -0.1460  0.0536 -0.2646
    1CHOL    R414221   8.768   2.409   6.188 -0.3886 -0.0515 -0.5963
    1CHOL    R514222   8.746   2.471   6.396  0.0043 -0.1117 -0.5374
    1CHOL    C114223   8.752   2.812   6.226 -0.0051 -0.0531 -0.4205
    1CHOL    C214224   8.989   3.096   6.295 -0.1019 -0.1247 -0.0008
    1CHOL   ROH14225   9.184  18.052   2.680  0.3279  0.0143  0.1338
    1CHOL    R114226   9.115  18.207   2.907 -0.0243 -0.0315  0.0594
    1CHOL    R214227   8.889  18.158   3.058  0.0268 -0.4006  0.0165
    1CHOL    R314228   9.068  18.149   3.263 -0.0112  0.0082  0.0673
    1CHOL    R414229   8.810  18.204   3.391 -0.1407 -0.3824 -0.0257
    1CHOL    R514230   8.993  18.320   3.414 -0.3481 -0.0496 -0.0321
    1CHOL    C114231   8.931  18.222   3.778 -0.2733  0.0115 -0.0025
    1CHOL    C214232   8.746  18.083   4.018 -0.1500 -0.1450  0.3119
    1CHOL   ROH14233   1.125  25.729   5.491 -0.1691  0.1183 -0.0358
    1CHOL    R114234   1.003  25.911   5.312 -0.2160  0.0439 -0.0787
    1CHOL    R214235   1.092  25.945   5.053 -0.0429  0.2162  0.0021
    1CHOL    R314236   0.833  25.892   4.991  0.0629 -0.0387 -0.2227
    1CHOL    R414237   0.927  26.064   4.773 -0.0555  0.4406  0.1056
    1CHOL    R514238   0.750  26.096   4.897 -0.1659  0.0010  0.0637
    1CHOL    C114239   0.587  26.083   4.553  0.0365  0.3331 -0.0455
    1CHOL    C214240   0.456  26.367   4.406 -0.2290 -0.0151 -0.0189
    1CHOL   ROH14241  21.379  18.965   3.510 -0.4149 -0.0881  0.1152
    1CHOL    R114242  21.373  18.804   3.743 -0.1955 -0.0753  0.1304
    1CHOL    R214243  21.538  18.849   3.960 -0.0851  0.0175  0.0261
    1CHOL    R314244  21.303  18.854   4.097 -0.0025 -0.0845  0.1696
    1CHOL    R414245  21.504  18.773   4.295  0.0792 -0.4578 -0.0653
    1CHOL    R514246  21.319  18.668   4.247  0.0086 -0.3119 -0.1109
    1CHOL    C114247  21.263  18.732   4.619  0.2517 -0.8313  0.0164
    1CHOL    C214248  21.317  18.830   4.954 -0.2753  0.1354  0.0573
    1CHOL   ROH14249  11.974  18.386   5.995  0.0097  0.0232 -0.0016
    1CHOL    R114250  11.841  18.270   5.774 -0.0086  0.0296  0.0062
    1CHOL    R214251  11.763  18.416   5.553  0.0133  0.0276 -0.0030
    1CHOL    R314252  11.905  18.227   5.418 -0.0154 -0.0030  0.0088
    1CHOL    R414253  11.752  18.368   5.211  0.1011  0.0887 -0.0150
    1CHOL    R514254  11.756  18.153   5.246  0.0095  0.0820 -0.0501
    1CHOL    C114255  11.878  18.162   4.885  0.1241  0.0961 -0.0111
    1CHOL    C214256  11.626  17.896   4.634  0.2200  0.1742 -0.0283
    1CHOL   ROH14257  25.749  10.862   5.232  0.1684 -0.2515 -0.0473
    1CHOL    R114258  25.632  10.769   4.992  0.0515 -0.2475  0.0086
    1CHOL    R214259  25.728  10.840   4.743 -0.1986 -0.0795 -0.0393
    1CHOL    R314260  25.738  10.571   4.705 -0.0236 -0.0579 -0.1501
    1CHOL    R414261  25.772  10.685   4.437 -0.1068  0.0749 -0.1047
    1CHOL    R514262  25.625  10.536   4.497 -0.0076 -0.0467 -0.1609
    1CHOL    C114263  25.807  10.341   4.224  0.1098  0.1851 -0.2470
    1CHOL    C214264  25.794  10.224   3.883  0.2127 -0.1882  0.0886
    1CHOL   ROH14265   7.728  25.169   5.561 -0.1519  0.0822  0.0659
    1CHOL    R114266   7.632  25.318   5.340 -0.1657  0.0687  0.0634
    1CHOL    R214267   7.763  25.323   5.097 -0.0903  0.1900  0.1062
    1CHOL    R314268   7.521  25.245   5.001 -0.0149  0.0706  0.0138
    1CHOL    R414269   7.659  25.360   4.769  0.0410  0.0801  0.0522
    1CHOL    R514270   7.462  25.415   4.843 -0.0155  0.0124 -0.0482
    1CHOL    C114271   7.372  25.308   4.488  0.1880 -0.0967 -0.0664
    1CHOL    C214272   7.139  25.392   4.154  0.0188 -0.1379 -0.0656
    1CHOL   ROH14273   8.087  12.496   5.973 -0.1257  0.2080 -0.0533
    1CHOL    R114274   8.000  12.375   5.733 -0.1330  0.0739  0.0174
    1CHOL    R214275   8.099  12.447   5.486 -0.2776  0.0649 -0.0421
    1CHOL    R314276   8.150  12.181   5.464 -0.1019  0.0945  0.0198
    1CHOL    R414277   8.197  12.288   5.195  0.1168  0.1130  0.0658
    1CHOL    R514278   8.067  12.121   5.248  0.1588  0.0386 -0.0658
    1CHOL    C114279   8.303  11.945   5.006  0.5117  0.1674  0.1867
    1CHOL    C214280   8.343  11.549   5.012  0.1949 -0.2266 -0.2461
    1CHOL   ROH14281  22.660   5.604   3.897 -0.3571 -0.1995 -0.3208
    1CHOL    R114282  22.595   5.358   4.021  0.0677 -0.2387 -0.1729
    1CHOL    R214283  22.779   5.209   4.163  0.2947  0.2245  0.0184
    1CHOL    R314284  22.593   5.226   4.360  0.1742  0.0037 -0.0777
    1CHOL    R414285  22.756   4.992   4.431  0.3271  0.1123 -0.0694
    1CHOL    R514286  22.539   4.998   4.410  0.3328 -0.0582 -0.1864
    1CHOL    C114287  22.568   4.881   4.772  0.2297 -0.1600 -0.2111
    1CHOL    C214288  22.696   4.978   5.126 -0.0450  0.1046  0.0765
    1CHOL   ROH14289  21.270  27.538   4.822  0.1178  0.0147 -0.1709
    1CHOL    R114290  21.444  27.754   4.875  0.0744  0.0181 -0.0403
    1CHOL    R214291  21.506  27.836   5.132  0.0353 -0.1075  0.0084
    1CHOL    R314292  21.762  27.802   5.047  0.0487 -0.0157  0.0142
    1CHOL    R414293  21.785  27.959   5.294 -0.0134  0.0172 -0.0019
    1CHOL    R514294  21.869  28.009   5.099 -0.0315  0.0305 -0.0055
    1CHOL    C114295  22.188  27.998   5.308 -0.0293  0.1762 -0.0018
    1CHOL    C214296  22.439  28.037   5.722  0.1246  0.2194  0.2524
    1CHOL   ROH14297  25.679  24.098   6.132 -0.1566  0.1511 -0.1853
    1CHOL    R114298  25.459  24.107   5.955 -0.2298 -0.0401 -0.1042
    1CHOL    R214299  25.485  24.172   5.687 -0.4225  0.2458 -0.0541
    1CHOL    R314300  25.357  23.935   5.650 -0.0554  0.0741 -0.2271
    1CHOL    R414301  25.319  24.081   5.398 -0.4482  0.2813 -0.0501
    1CHOL    R514302  25.163  23.993   5.522 -0.2270 -0.1078 -0.0479
    1CHOL    C114303  25.102  23.806   5.195 -0.1190  0.1402 -0.2101
    1CHOL    C214304  25.022  24.085   4.895  0.0484  0.0039 -0.0832
    1CHOL   ROH14305  14.342   7.910   6.094 -0.0590 -0.1961 -0.0751
    1CHOL    R114306  14.335   7.972   5.818 -0.0844 -0.0691 -0.0463
    1CHOL    R214307  14.553   7.935   5.652 -0.1182 -0.0470 -0.0952
    1CHOL    R314308  14.376   7.790   5.506 -0.1749  0.0630 -0.1350
    1CHOL    R414309  14.610   7.820   5.331 -0.1154 -0.0844 -0.0811
    1CHOL    R514310  14.403   7.871   5.282 -0.0725  0.0448 -0.1285
    1CHOL    C114311  14.477   7.617   5.007 -0.1683 -0.0031 -0.1104
    1CHOL    C214312  14.514   7.481   4.646 -0.3748 -0.2541 -0.1411
    1CHOL   ROH14313  18.754  11.848   5.705 -0.2425 -0.2020  0.0945
    1CHOL    R114314  18.552  11.831   5.507 -0.1545  0.0257 -0.0153
    1CHOL    R214315  18.596  11.904   5.244  0.0853 -0.0665 -0.0022
    1CHOL    R314316  18.505  11.653   5.193 -0.2048  0.0414 -0.0167
    1CHOL    R414317  18.566  11.766   4.929  0.1535 -0.0982  0.0055
    1CHOL    R514318  18.377  11.676   4.991 -0.0143  0.1645 -0.1237
    1CHOL    C114319  18.464  11.450   4.697 -0.0803 -0.0161 -0.0039
    1CHOL    C214320  18.254  11.573   4.421  0.2396 -0.0628 -0.2817
    1CHOL   ROH14321  16.769  19.559   3.121  0.2012 -0.2700 -0.0441
    1CHOL    R114322  16.642  19.569   3.374  0.1917  0.0343 -0.0601
    1CHOL    R214323  16.563  19.342   3.510 -0.0816  0.2136  0.0765
    1CHOL    R314324  16.712  19.448   3.710  0.0254  0.1650  0.0213
    1CHOL    R414325  16.547  19.244   3.841  0.1040  0.1278  0.0600
    1CHOL    R514326  16.564  19.454   3.899  0.1307  0.1144  0.1043
    1CHOL    C114327  16.679  19.287   4.222  0.3122  0.0350 -0.0015
    1CHOL    C214328  16.580  19.319   4.556 -0.2102  0.2783  0.0206
    1CHOL   ROH14329   9.244   9.648   3.756  0.0410  0.0118 -0.0473
    1CHOL    R114330   9.368   9.625   4.010 -0.0114 -0.0820 -0.0296
    1CHOL    R214331   9.436   9.845   4.162  0.1908 -0.1324 -0.0470
    1CHOL    R314332   9.288   9.719   4.352  0.0417  0.0375 -0.0503
    1CHOL    R414333   9.438   9.924   4.499  0.2332 -0.0978 -0.0560
    1CHOL    R514334   9.432   9.711   4.544  0.0134 -0.0868 -0.0329
    1CHOL    C114335   9.301   9.852   4.873  0.1183  0.0823 -0.0637
    1CHOL    C214336   9.628   9.930   5.057 -0.2203  0.3995 -0.3053
    1CHOL   ROH14337  10.568  14.311   3.125 -0.0760  0.0025 -0.1467
    1CHOL    R114338  10.408  14.285   3.357 -0.1421  0.0896 -0.1822
    1CHOL    R214339  10.515  14.246   3.608 -0.2226 -0.0991 -0.1761
    1CHOL    R314340  10.365  14.464   3.670 -0.0146  0.0336 -0.1323
    1CHOL    R414341  10.426  14.339   3.929 -0.2403 -0.1497 -0.1663
    1CHOL    R514342  10.228  14.391   3.853 -0.1574  0.0954 -0.2148
    1CHOL    C114343  10.233  14.598   4.174 -0.0554 -0.0554 -0.1195
    1CHOL    C214344  10.327  14.425   4.442  0.1027 -0.2901  0.1296
    1CHOL   ROH14345  25.047   4.266   4.688  0.0303  0.1094  0.1598
    1CHOL    R114346  25.102   4.409   4.926  0.1307 -0.0138  0.2108
    1CHOL    R214347  24.907   4.546   5.065  0.2681  0.2496  0.1438
    1CHOL    R314348  24.995   4.395   5.273 -0.0540  0.0823  0.1580
    1CHOL    R414349  24.805   4.584   5.393  0.2356  0.3998  0.1168
    1CHOL    R514350  25.011   4.550   5.456  0.1583  0.0412  0.1745
    1CHOL    C114351  24.828   4.465   5.780 -0.0832  0.3302  0.1146
    1CHOL    C214352  24.830   4.623   6.145 -0.1162  0.0823  0.2317
    1CHOL   ROH14353  12.064   7.894   3.271  0.0706 -0.0275  0.1696
    1CHOL    R114354  12.123   7.921   3.547 -0.0014 -0.0896  0.1909
    1CHOL    R214355  12.147   8.167   3.671  0.1773 -0.1151  0.2079
    1CHOL    R314356  11.960   8.064   3.839  0.0264  0.0464  0.1397
    1CHOL    R414357  12.120   8.245   4.006  0.1001 -0.0668  0.1903
    1CHOL    R514358  12.077   8.035   4.047 -0.0820 -0.0286  0.1903
    1CHOL    C114359  11.929   8.194   4.360 -0.0856  0.1144  0.1158
    1CHOL    C214360  12.130   8.016   4.597 -0.0591  0.0414 -0.0311
    1CHOL   ROH14361   3.587  21.127   5.669  0.0415 -0.0557  0.1153
    1CHOL    R114362   3.407  21.082   5.455 -0.0629 -0.1507  0.2232
    1CHOL    R214363   3.485  21.098   5.190 -0.2772  0.0850  0.1741
    1CHOL    R314364   3.380  20.847   5.178  0.0123 -0.0334  0.1146
    1CHOL    R414365   3.430  20.921   4.898 -0.5277  0.2842  0.0999
    1CHOL    R514366   3.241  20.851   4.982 -0.3065 -0.0248  0.3397
    1CHOL    C114367   3.299  20.583   4.717 -0.4025  0.2891  0.0009
    1CHOL    C214368   3.013  20.511   4.593  0.3201  0.0849  0.0651
    1CHOL   ROH14369   8.432  15.087   2.943 -0.1937  0.0076 -0.1221
    1CHOL    R114370   8.535  15.010   3.195 -0.0939  0.0057 -0.1636
    1CHOL    R214371   8.644  15.191   3.373 -0.0558  0.0091 -0.1904
    1CHOL    R314372   8.462  15.083   3.544  0.0196 -0.0265 -0.1333
    1CHOL    R414373   8.619  15.269   3.709  0.0381  0.0014 -0.1818
    1CHOL    R514374   8.583  15.057   3.749  0.0916 -0.0062 -0.1721
    1CHOL    C114375   8.435  15.212   4.065  0.1637 -0.0371 -0.1230
    1CHOL    C214376   8.714  15.297   4.209  0.3819 -0.1503  0.0903
    1CHOL   ROH14377   7.365  20.724   2.635 -0.1173  0.1445 -0.0739
    1CHOL    R114378   7.357  20.745   2.917 -0.0534  0.1497 -0.0725
    1CHOL    R214379   7.125  20.707   3.062  0.0144 -0.0062 -0.0066
    1CHOL    R314380   7.277  20.526   3.196  0.1786  0.1068 -0.0405
    1CHOL    R414381   7.098  20.637   3.400  0.3090  0.1507  0.0505
    1CHOL    R514382   7.315  20.627   3.410  0.3214  0.2251 -0.1206
    1CHOL    C114383   7.224  20.427   3.722  0.6350  0.3490  0.0522
    1CHOL    C214384   7.331  20.583   4.037  0.1300 -0.1095 -0.2005
    1CHOL   ROH14385  27.791   0.940   5.979 -0.3249 -0.0621  0.1176
    1CHOL    R114386  27.832   0.780   5.750 -0.1440  0.0324  0.0834
    1CHOL    R214387  27.986   0.863   5.536  0.0076  0.1286  0.2302
    1CHOL    R314388  28.117   0.628   5.581 -0.0078  0.1200  0.2326
    1CHOL    R414389  28.182   0.698   5.304  0.0725  0.1611  0.2620
    1CHOL    R514390  28.098   0.510   5.373  0.0496  0.1516  0.2093
    1CHOL    C114391  28.418   0.382   5.210  0.0958  0.1719  0.2827
    1CHOL    C214392  28.580   0.389   4.797 -0.5353  0.0283  0.1653
    1CHOL   ROH14393  15.845  20.910   2.913 -0.0320  0.1568  0.0220
    1CHOL    R114394  15.822  20.843   3.188 -0.0787 -0.0219 -0.0247
    1CHOL    R214395  15.910  21.010   3.389  0.0934 -0.2497  0.0915
    1CHOL    R314396  15.656  20.982   3.480  0.0708 -0.0739  0.0860
    1CHOL    R414397  15.822  20.977   3.722  0.0663 -0.2317  0.0861
    1CHOL    R514398  15.675  20.827   3.662 -0.0443 -0.1154  0.0643
    1CHOL    C114399  15.532  20.931   4.001  0.0297 -0.0566  0.0776
    1CHOL    C214400  15.349  20.692   4.254 -0.1631  0.2936  0.0358
    1CHOL   ROH14401   8.834  11.440   3.718 -0.2273  0.1812 -0.1295
    1CHOL    R114402   8.952  11.476   3.973 -0.0682  0.1583 -0.2000
    1CHOL    R214403   9.126  11.683   4.029 -0.1772  0.2610 -0.2386
    1CHOL    R314404   8.952  11.732   4.231 -0.0656  0.0481 -0.0905
    1CHOL    R414405   9.217  11.776   4.349 -0.0153  0.2766 -0.2894
    1CHOL    R514406   9.061  11.645   4.426  0.1717  0.1092 -0.1953
    1CHOL    C114407   9.106  11.876   4.726  0.1836  0.0869 -0.1798
    1CHOL    C214408   9.114  11.912   5.009  0.1156  0.1717 -0.1195
    1CHOL   ROH14409  25.817  22.723   6.347  0.2442  0.0082 -0.0703
    1CHOL    R114410  25.667  22.800   6.120  0.0887 -0.1764 -0.0300
    1CHOL    R214411  25.712  23.037   5.986 -0.2500 -0.1133 -0.0334
    1CHOL    R314412  25.735  22.873   5.770 -0.0928 -0.0765 -0.0442
    1CHOL    R414413  25.657  23.132   5.658  0.1459 -0.0153 -0.0718
    1CHOL    R514414  25.558  22.941   5.624  0.0935  0.0372 -0.2196
    1CHOL    C114415  25.647  23.034   5.265  0.5219  0.0754 -0.1038
    1CHOL    C214416  25.767  23.164   4.877  0.1485  0.0963 -0.0430
    1CHOL   ROH14417   0.943  21.678   3.022  0.0482  0.0669 -0.0828
    1CHOL    R114418   0.869  21.607   3.286  0.0809  0.0916 -0.0676
    1CHOL    R214419   0.922  21.357   3.393  0.0659  0.0906 -0.0622
    1CHOL    R314420   1.041  21.503   3.590  0.1146  0.0865 -0.0883
    1CHOL    R414421   0.945  21.260   3.724 -0.0995  0.2108 -0.0150
    1CHOL    R514422   0.903  21.466   3.782  0.0333  0.2651 -0.1125
    1CHOL    C114423   1.070  21.339   4.101 -0.1501  0.2758 -0.0126
    1CHOL    C214424   1.384  21.385   4.226  0.3421  0.0493 -0.2147
    1CHOL   ROH14425   7.957  15.964   5.495  0.2484 -0.3492  0.0720
    1CHOL    R114426   7.834  15.941   5.241  0.2754 -0.1798  0.0443
    1CHOL    R214427   7.977  15.883   5.012  0.2521 -0.3400  0.0714
    1CHOL    R314428   7.795  15.682   4.989  0.0086 -0.1123  0.0177
    1CHOL    R414429   7.848  15.768   4.713  0.1922 -0.1755  0.0331
    1CHOL    R514430   7.653  15.752   4.809  0.1462  0.0668 -0.0215
    1CHOL    C114431   7.602  15.512   4.517 -0.0708  0.1335 -0.0391
    1CHOL    C214432   7.554  15.325   4.164 -0.3165 -0.3960  0.1763
    1CHOL   ROH14433   9.831  15.206   3.014  0.1943  0.1421 -0.0231
    1CHOL    R114434   9.908  15.353   3.242 -0.1011  0.2885 -0.0169
    1CHOL    R214435   9.728  15.492   3.398 -0.3947 -0.1642  0.0479
    1CHOL    R314436   9.837  15.345   3.599 -0.0005  0.0606 -0.0017
    1CHOL    R414437   9.692  15.561   3.735 -0.4578 -0.2899  0.0666
    1CHOL    R514438   9.901  15.508   3.763 -0.3266  0.1879  0.0011
    1CHOL    C114439   9.773  15.463   4.120 -0.1243 -0.1525  0.0314
    1CHOL    C214440   9.586  15.621   4.295  0.1209 -0.0175 -0.1732
    1CHOL   ROH14441  20.130  14.963   2.486 -0.0717  0.0599 -0.0202
    1CHOL    R114442  20.277  15.045   2.713 -0.0582  0.0262 -0.0165
    1CHOL    R214443  20.161  15.075   2.962 -0.0608  0.0619 -0.0216
    1CHOL    R314444  20.360  14.906   3.039 -0.1068  0.0118 -0.0104
    1CHOL    R414445  20.249  15.010   3.290 -0.2718 -0.1655 -0.0087
    1CHOL    R514446  20.459  15.013   3.229 -0.2308 -0.1192  0.1289
    1CHOL    C114447  20.487  14.814   3.553 -0.4384 -0.3447  0.0090
    1CHOL    C214448  20.541  14.860   3.816  0.2866  0.0310  0.0136
    1CHOL   ROH14449   8.928  17.583   6.029 -0.0251  0.2792  0.1118
    1CHOL    R114450   9.000  17.717   5.790  0.1407  0.0753  0.0463
    1CHOL    R214451   9.122  17.589   5.579 -0.2033 -0.2245  0.0277
    1CHOL    R314452   8.914  17.693   5.437 -0.0588  0.1517  0.0889
    1CHOL    R414453   9.149  17.735   5.266 -0.0134 -0.1640  0.0720
    1CHOL    R514454   9.006  17.887   5.331  0.2346  0.0410  0.1402
    1CHOL    C114455   8.970  17.918   4.952  0.2331  0.2229  0.1550
    1CHOL    C214456   8.929  17.943   4.586  0.1778 -0.0141 -0.0262
    1CHOL   ROH14457  15.431  28.018   6.300 -0.1348  0.1455  0.0241
    1CHOL    R114458  15.590  28.108   6.084 -0.0010 -0.2365 -0.0355
    1CHOL    R214459  15.586  27.985   5.836 -0.4961 -0.1395 -0.0759
    1CHOL    R314460  15.531  28.237   5.748  0.1795  0.0495  0.0436
    1CHOL    R414461  15.613  28.090   5.508 -0.5159 -0.1421 -0.0784
    1CHOL    R514462  15.697  28.278   5.580  0.1340 -0.4139 -0.1173
    1CHOL    C114463  15.578  28.387   5.235  0.1077  0.0337  0.0322
    1CHOL    C214464  15.337  28.509   5.040  0.0064  0.2752  0.1661
    1CHOL   ROH14465   3.315  25.576   5.418 -0.1505 -0.2312  0.0057
    1CHOL    R114466   3.279  25.312   5.321 -0.0807 -0.1736 -0.1783
    1CHOL    R214467   3.321  25.244   5.057  0.1310 -0.0186 -0.1837
    1CHOL    R314468   3.487  25.057   5.165  0.0365 -0.0893 -0.1600
    1CHOL    R414469   3.449  24.971   4.887  0.1498  0.0000 -0.2022
    1CHOL    R514470   3.416  24.851   5.066  0.0376 -0.0429 -0.2537
    1CHOL    C114471   3.679  24.637   4.890  0.0717 -0.0526 -0.1907
    1CHOL    C214472   3.880  24.511   4.621  0.1009 -0.0131  0.0557
    1CHOL   ROH14473   4.100  17.880   4.875  0.2189 -0.0158  0.0976
    1CHOL    R114474   4.137  17.971   4.609  0.1187 -0.1154  0.0489
    1CHOL    R214475   4.239  18.221   4.551 -0.0378 -0.0827 -0.0836
    1CHOL    R314476   4.417  18.079   4.403  0.0192 -0.0466 -0.0499
    1CHOL    R414477   4.370  18.323   4.248 -0.1581 -0.1507 -0.1585
    1CHOL    R514478   4.351  18.118   4.176 -0.0484 -0.1955 -0.0560
    1CHOL    C114479   4.613  18.249   3.932 -0.1744 -0.1553 -0.1696
    1CHOL    C214480   4.774  18.288   3.744 -0.0554 -0.1321  0.0438
    1CHOL   ROH14481  14.440  22.433   3.694  0.0303 -0.0819 -0.0596
    1CHOL    R114482  14.642  22.314   3.852  0.0033 -0.0353  0.0104
    1CHOL    R214483  14.745  22.064   3.797  0.0197 -0.0471  0.0965
    1CHOL    R314484  14.983  22.197   3.802  0.0148 -0.0397  0.1077
    1CHOL    R414485  15.032  21.951   3.954  0.0172 -0.0391  0.1087
    1CHOL    R514486  15.069  22.155   4.021  0.0072 -0.0391  0.1111
    1CHOL    C114487  15.421  22.010   4.051  0.0104 -0.0291  0.1258
    1CHOL    C214488  15.807  21.909   4.007 -0.0614 -0.0346 -0.1450
    1CHOL   ROH14489  14.448  13.532   3.059  0.0616  0.1292  0.0961
    1CHOL    R114490  14.355  13.520   3.326  0.0291  0.0672  0.0821
    1CHOL    R214491  14.414  13.308   3.494  0.1926  0.1336  0.1082
    1CHOL    R314492  14.506  13.505   3.658 -0.0122  0.2297  0.1079
    1CHOL    R414493  14.415  13.294   3.840  0.0772  0.1941  0.1111
    1CHOL    R514494  14.355  13.504   3.843 -0.0782  0.1502  0.0533
    1CHOL    C114495  14.501  13.471   4.194 -0.1810  0.3192  0.1123
    1CHOL    C214496  14.298  13.499   4.521  0.2595  0.1676 -0.1675
    1CHOL   ROH14497   6.609   4.563   6.663  0.0513 -0.0532  0.2828
    1CHOL    R114498   6.687   4.608   6.395  0.0973  0.0048  0.3059
    1CHOL    R214499   6.898   4.474   6.277  0.0264 -0.0741  0.2682
    1CHOL    R314500   6.711   4.411   6.090  0.0018  0.1097  0.2305
    1CHOL    R414501   6.969   4.372   5.955 -0.0055 -0.2952  0.3304
    1CHOL    R514502   6.802   4.495   5.885  0.1857 -0.0937  0.2284
    1CHOL    C114503   6.834   4.254   5.591 -0.0463 -0.2508  0.3317
    1CHOL    C214504   6.864   3.791   5.466 -0.0166 -0.3759  0.0841
    1CHOL   ROH14505   7.145  15.442   4.436  0.2324 -0.0155  0.0758
    1CHOL    R114506   6.976  15.656   4.513  0.1464 -0.0734  0.0479
    1CHOL    R214507   6.982  15.902   4.387  0.1112 -0.0582  0.0759
    1CHOL    R314508   6.716  15.857   4.356  0.1337 -0.1330 -0.0088
    1CHOL    R414509   6.752  16.139   4.284  0.0615 -0.0954  0.1020
    1CHOL    R514510   6.612  16.059   4.431  0.0496 -0.1936  0.0374
    1CHOL    C114511   6.368  16.233   4.194  0.0537 -0.1863  0.0378
    1CHOL    C214512   6.561  16.556   4.035  0.0697  0.1990 -0.0440
    1CHOL   ROH14513  29.798  10.617   3.723  0.2171 -0.0831 -0.0238
    1CHOL    R114514  29.789  10.429   3.934  0.3099 -0.0019  0.0528
    1CHOL    R214515  29.955  10.443   4.154  0.1652  0.2828  0.1436
    1CHOL    R314516  29.721  10.435   4.291  0.0951  0.0768  0.0106
    1CHOL    R414517  29.929  10.410   4.497  0.0057  0.4716  0.1495
    1CHOL    R514518  29.760  10.275   4.466  0.1936  0.2389  0.1371
    1CHOL    C114519  29.694  10.383   4.826 -0.1551  0.3879  0.0285
    1CHOL    C214520  29.621  10.373   5.216 -0.2392 -0.1397 -0.1993
    1CHOL   ROH14521   9.097   8.502   3.636 -0.1819 -0.0251 -0.1105
    1CHOL    R114522   8.967   8.588   3.871 -0.0677  0.0672 -0.0806
    1CHOL    R214523   8.984   8.450   4.110 -0.1450  0.0309 -0.0956
    1CHOL    R314524   9.066   8.691   4.206  0.0776 -0.0479 -0.0886
    1CHOL    R414525   9.038   8.521   4.444 -0.2027  0.0091 -0.0818
    1CHOL    R514526   8.946   8.716   4.412  0.0229  0.1049 -0.1397
    1CHOL    C114527   9.146   8.789   4.729 -0.0267 -0.0786 -0.0669
    1CHOL    C214528   8.866   8.727   4.951 -0.0816  0.0964  0.1398
    1CHOL   ROH14529  15.348   3.142   4.975 -0.0941  0.1623  0.3504
    1CHOL    R114530  15.515   3.343   4.867 -0.0901  0.0975  0.2351
    1CHOL    R214531  15.619   3.548   5.020 -0.0188  0.1360  0.1343
    1CHOL    R314532  15.856   3.461   4.919 -0.0589  0.0628  0.1037
    1CHOL    R414533  15.920   3.715   5.051 -0.0377  0.2443 -0.2544
    1CHOL    R514534  15.965   3.660   4.845 -0.1478 -0.0055 -0.2129
    1CHOL    C114535  16.318   3.730   4.974 -0.0873  0.2384 -0.5093
    1CHOL    C214536  16.317   4.135   4.983  0.1141  0.2745  0.1583
    1CHOL   ROH14537  20.030  14.509   2.611  0.1740  0.0425  0.0792
    1CHOL    R114538  20.152  14.568   2.859 -0.0105  0.1202  0.1508
    1CHOL    R214539  20.007  14.600   3.092 -0.1533 -0.0957  0.0905
    1CHOL    R314540  20.178  14.410   3.186  0.0126  0.0718  0.1259
    1CHOL    R414541  20.060  14.530   3.426 -0.0458  0.0553  0.1049
    1CHOL    R514542  20.273  14.508   3.383 -0.0353  0.2122  0.0793
    1CHOL    C114543  20.251  14.311   3.709  0.1736  0.3013  0.1469
    1CHOL    C214544  20.535  14.269   3.876 -0.0817  0.1091 -0.2625
    1CHOL   ROH14545  17.717  11.897   6.181  0.0829  0.0557 -0.0085
    1CHOL    R114546  17.707  11.787   5.920  0.1488  0.1345 -0.0446
    1CHOL    R214547  17.474  11.771   5.774  0.1280 -0.1108  0.0160
    1CHOL    R314548  17.620  11.902   5.587 -0.0917  0.1401  0.0201
    1CHOL    R414549  17.423  11.748   5.433  0.2422 -0.2761  0.0103
    1CHOL    R514550  17.640  11.746   5.406  0.2518  0.1426  0.0546
    1CHOL    C114551  17.531  11.859   5.058  0.1013 -0.1371  0.0103
    1CHOL    C214552  17.459  11.876   4.664  0.1614 -0.1222  0.0164
    1CHOL   ROH14553  16.948  11.134   6.247 -0.2836 -0.2388  0.1312
    1CHOL    R114554  16.823  10.987   6.040 -0.1097 -0.1974 -0.0036
    1CHOL    R214555  16.703  11.108   5.823 -0.1265 -0.1455  0.0344
    1CHOL    R314556  16.868  10.944   5.682  0.0392  0.0638 -0.0164
    1CHOL    R414557  16.654  11.014   5.494 -0.0877 -0.1764  0.0377
    1CHOL    R514558  16.720  10.813   5.547  0.1650 -0.1020  0.0057
    1CHOL    C114559  16.779  10.806   5.170  0.0898  0.0022 -0.0082
    1CHOL    C214560  16.703  10.846   4.804 -0.3577  0.2536 -0.2226
    1CHOL   ROH14561  20.276   9.039   5.882 -0.1804  0.1480 -0.0201
    1CHOL    R114562  20.172   8.972   5.627 -0.1135  0.2208 -0.0675
    1CHOL    R214563  20.253   9.098   5.395  0.1280  0.1173 -0.0383
    1CHOL    R314564  20.302   8.843   5.313 -0.0734  0.0606  0.0147
    1CHOL    R414565  20.226   8.987   5.069  0.1802  0.1044 -0.0389
    1CHOL    R514566  20.137   8.803   5.144 -0.0315  0.1979 -0.0598
    1CHOL    C114567  20.256   8.684   4.802  0.0202  0.0449  0.0115
    1CHOL    C214568  20.401   8.513   4.520 -0.0202  0.1096  0.1729
    1CHOL   ROH14569  11.826  11.751   3.351  0.0746  0.0272 -0.0308
    1CHOL    R114570  11.917  11.742   3.618  0.0496  0.0157 -0.0226
    1CHOL    R214571  11.999  11.968   3.755 -0.0114  0.0163  0.0117
    1CHOL    R314572  11.815  11.884   3.937 -0.0123 -0.0432 -0.0163
    1CHOL    R414573  12.028  12.007   4.097 -0.0887  0.0486  0.0148
    1CHOL    R514574  11.946  11.807   4.122 -0.0153  0.0186  0.0122
    1CHOL    C114575  11.873  11.952   4.468 -0.1340  0.0118 -0.0099
    1CHOL    C214576  12.095  11.751   4.682  0.2127 -0.0879  0.2051
    1CHOL   ROH14577  11.882  20.891   5.718 -0.1505  0.0779 -0.0281
    1CHOL    R114578  11.966  20.775   5.474 -0.0672  0.0305  0.0229
    1CHOL    R214579  11.929  20.508   5.416 -0.0610  0.0227  0.0576
    1CHOL    R314580  11.807  20.606   5.193  0.0260 -0.0114 -0.0049
    1CHOL    R414581  11.764  20.316   5.180  0.1740 -0.0305 -0.0651
    1CHOL    R514582  11.851  20.441   5.024  0.2079  0.0296  0.0021
    1CHOL    C114583  11.554  20.296   4.834  0.3924 -0.0921 -0.1945
    1CHOL    C214584  11.507  20.066   4.433 -0.0964 -0.4144 -0.0538
    1CHOL   ROH14585   8.828  14.269   6.610 -0.3081  0.1278 -0.0641
    1CHOL    R114586   8.856  14.240   6.330 -0.2470  0.0482 -0.0498
    1CHOL    R214587   9.101  14.260   6.203 -0.2303  0.0918 -0.0111
    1CHOL    R314588   9.032  14.016   6.104 -0.1298  0.0371  0.0530
    1CHOL    R414589   9.201  14.137   5.896 -0.3033  0.1135 -0.0436
    1CHOL    R514590   9.001  14.054   5.869 -0.2656 -0.0124  0.0634
    1CHOL    C114591   9.195  13.836   5.624 -0.2508  0.0746 -0.0020
    1CHOL    C214592   9.129  13.955   5.302  0.2899  0.0781 -0.1291
    1CHOL   ROH14593  14.768  15.623   6.329 -0.1202  0.1627  0.0607
    1CHOL    R114594  14.814  15.519   6.069 -0.0854  0.0887  0.0966
    1CHOL    R214595  14.643  15.565   5.858 -0.0472  0.0434  0.0558
    1CHOL    R314596  14.869  15.654   5.736 -0.0216 -0.0058  0.0683
    1CHOL    R414597  14.685  15.590   5.516 -0.0587  0.1278  0.0606
    1CHOL    R514598  14.889  15.517   5.541 -0.0854  0.0434  0.0267
    1CHOL    C114599  14.922  15.689   5.202 -0.0408  0.1292  0.0750
    1CHOL    C214600  15.024  15.438   5.031 -0.0291 -0.0286  0.2407
    1CHOL   ROH14601  13.772  13.026   6.697  0.0900  0.0363  0.0980
    1CHOL    R114602  13.659  13.080   6.443  0.0820 -0.1044  0.0718
    1CHOL    R214603  13.715  13.310   6.302 -0.0938 -0.0812  0.0403
    1CHOL    R314604  13.781  13.135   6.105  0.0867 -0.0583  0.0807
    1CHOL    R414605  13.633  13.348   5.968 -0.1307 -0.2413  0.0312
    1CHOL    R514606  13.590  13.134   5.960  0.0892 -0.2861  0.0794
    1CHOL    C114607  13.647  13.205   5.589  0.0178 -0.3131  0.0639
    1CHOL    C214608  13.648  13.162   5.233  0.5219  0.1437  0.0483
    1CHOL   ROH14609  29.603  28.816   3.591  0.2138  0.1983 -0.0508
    1CHOL    R114610  29.442  28.843   3.823  0.1831  0.2222 -0.0758
    1CHOL    R214611  29.393  28.633   3.995 -0.1108  0.1571 -0.2375
    1CHOL    R314612  29.488  28.806   4.182  0.0394 -0.0844 -0.0898
    1CHOL    R414613  29.401  28.571   4.334 -0.3252 -0.0706 -0.2735
    1CHOL    R514614  29.341  28.778   4.369 -0.0696 -0.0124 -0.1659
    1CHOL    C114615  29.495  28.697   4.708 -0.3074 -0.4300 -0.1557
    1CHOL    C214616  29.783  28.603   4.795  0.0812  0.0231 -0.1539
    1CHOL   ROH14617  17.985  16.823   6.427 -0.0394 -0.1926 -0.0680
    1CHOL    R114618  17.904  16.770   6.161 -0.0181 -0.0429 -0.1042
    1CHOL    R214619  17.760  16.951   6.010  0.1360  0.1079 -0.0709
    1CHOL    R314620  17.962  16.915   5.833  0.1494  0.0305 -0.0406
    1CHOL    R414621  17.752  17.051   5.680  0.1755 -0.0019 -0.1054
    1CHOL    R514622  17.852  16.865   5.626  0.1650 -0.0286 -0.0336
    1CHOL    C114623  17.938  17.076   5.320  0.2090 -0.1372 -0.0967
    1CHOL    C214624  18.030  16.931   5.017  0.0476  0.2706 -0.1813
    1CHOL   ROH14625  16.428  12.012   6.187 -0.1054 -0.1850 -0.1240
    1CHOL    R114626  16.381  12.111   5.925 -0.2260 -0.1316 -0.0823
    1CHOL    R214627  16.569  12.093   5.724 -0.2237  0.1341 -0.1049
    1CHOL    R314628  16.366  11.973   5.589 -0.1137 -0.0187 -0.1337
    1CHOL    R414629  16.567  12.032   5.384 -0.0982  0.0672 -0.0939
    1CHOL    R514630  16.356  12.089   5.380 -0.1335 -0.0648 -0.1588
    1CHOL    C114631  16.375  11.884   5.059  0.0780 -0.1159 -0.1147
    1CHOL    C214632  16.366  12.227   4.849  0.3144 -0.2962  0.0333
    1CHOL   ROH14633  11.818  17.355   5.967  0.0758 -0.0564 -0.0277
    1CHOL    R114634  11.762  17.190   5.744 -0.2675  0.0362 -0.0088
    1CHOL    R214635  11.565  17.251   5.560 -0.0759  0.4756 -0.0703
    1CHOL    R314636  11.768  17.224   5.381 -0.0947 -0.0521 -0.0143
    1CHOL    R414637  11.526  17.247   5.217 -0.0215  0.2851 -0.0744
    1CHOL    R514638  11.675  17.088   5.207 -0.3233 -0.0105  0.0739
    1CHOL    C114639  11.695  17.220   4.849 -0.0073 -0.3199 -0.0242
    1CHOL    C214640  11.398  17.309   4.682 -0.1013  0.4287  0.2257
    1CHOL   ROH14641  19.552  17.627   2.798  0.1767 -0.1474 -0.0254
    1CHOL    R114642  19.497  17.467   3.025  0.0963 -0.0486  0.0236
    1CHOL    R214643  19.697  17.365   3.187  0.0392 -0.0257  0.1053
    1CHOL    R314644  19.556  17.489   3.384  0.0221  0.0753  0.0281
    1CHOL    R414645  19.736  17.306   3.525  0.2146  0.3643  0.1544
    1CHOL    R514646  19.520  17.318   3.547  0.2146  0.2241  0.2251
    1CHOL    C114647  19.627  17.387   3.907  0.3006  0.6888  0.1103
    1CHOL    C214648  19.631  17.377   4.335 -0.0379 -0.3712  0.1783
    1CHOL   ROH14649  10.969  26.244   5.046  0.0206  0.3171 -0.0580
    1CHOL    R114650  10.934  26.044   4.848 -0.0558  0.2041  0.0687
    1CHOL    R214651  10.909  26.103   4.580 -0.2412  0.0579  0.0538
    1CHOL    R314652  11.115  25.928   4.554 -0.2131  0.0963  0.0147
    1CHOL    R414653  11.062  26.021   4.281 -0.3214  0.0429  0.0167
    1CHOL    R514654  11.071  25.814   4.349 -0.2575  0.0544  0.0465
    1CHOL    C114655  11.345  25.809   4.083 -0.3424  0.0680 -0.0414
    1CHOL    C214656  11.487  25.459   4.115  0.0185  0.3397 -0.0624
    1CHOL   ROH14657   8.745  12.349   6.533 -0.1485 -0.0397  0.1444
    1CHOL    R114658   8.943  12.267   6.349 -0.0949 -0.1154  0.2356
    1CHOL    R214659   8.946  12.015   6.236 -0.1452 -0.1122  0.2279
    1CHOL    R314660   8.953  12.156   6.003  0.0233 -0.1067  0.2360
    1CHOL    R414661   9.052  11.889   5.932 -0.2303 -0.2003  0.2348
    1CHOL    R514662   9.152  12.079   5.893 -0.0381 -0.2956  0.2582
    1CHOL    C114663   9.121  11.947   5.537 -0.1205 -0.2462  0.2469
    1CHOL    C214664   9.467  11.758   5.370  0.0014 -0.0346  0.1654
    1CHOL   ROH14665   9.007  10.068   3.775 -0.3330 -0.0223 -0.0348
    1CHOL    R114666   9.034   9.999   4.048 -0.0196  0.0215 -0.0534
    1CHOL    R214667   9.152  10.166   4.233 -0.1934  0.2337 -0.1340
    1CHOL    R314668   8.918  10.131   4.367 -0.0389 -0.1914  0.0276
    1CHOL    R414669   9.114  10.194   4.575  0.0000  0.1159 -0.1020
    1CHOL    R514670   8.982  10.021   4.570  0.2961 -0.1125 -0.0341
    1CHOL    C114671   8.872  10.178   4.900  0.2578 -0.3518  0.0680
    1CHOL    C214672   8.660  10.053   5.105 -0.0661 -0.1446 -0.1510
    1CHOL   ROH14673   0.396  18.970   5.759  0.1466  0.1937  0.0544
    1CHOL    R114674   0.483  18.889   5.503  0.1222  0.1383  0.0641
    1CHOL    R214675   0.372  18.673   5.370  0.1521  0.0709  0.1480
    1CHOL    R314676   0.335  18.856   5.172  0.0733  0.0037  0.0997
    1CHOL    R414677   0.278  18.597   5.046  0.3319 -0.0696  0.1285
    1CHOL    R514678   0.418  18.747   4.975  0.2337  0.0334  0.1504
    1CHOL    C114679   0.188  18.723   4.672  0.3627 -0.2159  0.0719
    1CHOL    C214680   0.086  18.414   4.429 -0.1446  0.0768  0.1060
    1CHOL   ROH14681   6.429  24.474   2.936 -0.0750 -0.1507 -0.1823
    1CHOL    R114682   6.534  24.450   3.197 -0.0226  0.0114 -0.1879
    1CHOL    R214683   6.376  24.472   3.423  0.0040  0.0463 -0.1728
    1CHOL    R314684   6.483  24.229   3.483  0.1179  0.1178 -0.0810
    1CHOL    R414685   6.379  24.329   3.738 -0.2580  0.0029 -0.1897
    1CHOL    R514686   6.582  24.259   3.699 -0.1593  0.1640  0.0392
    1CHOL    C114687   6.481  24.018   3.977 -0.3042  0.0462 -0.1134
    1CHOL    C214688   6.292  24.278   4.228  0.0988 -0.2202  0.1543
    1CHOL   ROH14689  16.907  16.764   6.234 -0.2586  0.0426 -0.0096
    1CHOL    R114690  16.764  16.802   5.993 -0.1020  0.0839 -0.0961
    1CHOL    R214691  16.846  16.979   5.798  0.0898  0.0293 -0.0655
    1CHOL    R314692  16.829  16.761   5.637  0.0845  0.0214 -0.0550
    1CHOL    R414693  16.875  16.984   5.453  0.0391  0.0181 -0.0699
    1CHOL    R514694  16.713  16.839   5.443  0.0496  0.0038 -0.0410
    1CHOL    C114695  16.874  16.782   5.102  0.0059  0.0056 -0.0622
    1CHOL    C214696  16.645  16.990   4.796 -0.0099 -0.3777  0.0233
    1CHOL   ROH14697  19.763  11.701   2.624  0.1119  0.2396  0.1758
    1CHOL    R114698  19.873  11.657   2.881  0.0114  0.1712  0.2065
    1CHOL    R214699  19.749  11.742   3.113 -0.0950  0.0791  0.1830
    1CHOL    R314700  19.775  11.481   3.184 -0.0878  0.0591  0.1090
    1CHOL    R414701  19.668  11.614   3.423 -0.0057  0.0057  0.1758
    1CHOL    R514702  19.847  11.489   3.412 -0.0172 -0.0029  0.0885
    1CHOL    C114703  19.646  11.294   3.671  0.0516 -0.0556  0.1022
    1CHOL    C214704  19.739  11.249   4.044  0.4603 -0.0612  0.2251
    1CHOL   ROH14705  20.868   0.929   6.310  0.2606  0.1208 -0.1049
    1CHOL    R114706  20.960   0.870   6.049  0.2232  0.1235 -0.1183
    1CHOL    R214707  20.857   0.664   5.897  0.2259  0.1034 -0.0928
    1CHOL    R314708  20.818   0.861   5.714  0.1689  0.0910 -0.0938
    1CHOL    R414709  20.879   0.623   5.555 -0.0668  0.0374 -0.1040
    1CHOL    R514710  20.979   0.816   5.543  0.0105 -0.0099 -0.2162
    1CHOL    C114711  20.855   0.783   5.184 -0.2937 -0.0127 -0.1113
    1CHOL    C214712  20.749   0.454   4.972 -0.1013 -0.0412  0.2300
    1CHOL   ROH14713  13.935  13.444   3.079 -0.1368 -0.0286 -0.0284
    1CHOL    R114714  13.830  13.366   3.330 -0.0968  0.0768  0.0215
    1CHOL    R214715  13.985  13.247   3.525 -0.0702  0.1389  0.0383
    1CHOL    R314716  13.890  13.450   3.679 -0.0231  0.2065 -0.0221
    1CHOL    R414717  13.953  13.236   3.869 -0.0005  0.2766  0.0491
    1CHOL    R514718  13.763  13.340   3.850  0.0033  0.2832  0.0467
    1CHOL    C114719  13.846  13.420   4.214  0.0836  0.4193 -0.0010
    1CHOL    C214720  14.022  13.116   4.451  0.1242 -0.1458  0.2279
    1CHOL   ROH14721  10.041  18.854   2.623 -0.0497 -0.2134 -0.0526
    1CHOL    R114722  10.083  18.653   2.817  0.0901 -0.0429  0.0962
    1CHOL    R214723  10.190  18.706   3.066 -0.1052  0.2441  0.1209
    1CHOL    R314724   9.965  18.582   3.154 -0.0027  0.0265  0.0782
    1CHOL    R414725  10.164  18.532   3.364  0.0138  0.1936  0.1023
    1CHOL    R514726  10.044  18.382   3.260  0.1674  0.0916  0.0722
    1CHOL    C114727   9.937  18.315   3.620  0.1796 -0.0377  0.0514
    1CHOL    C214728   9.920  18.391   4.043  0.0591  0.0851  0.0214
    1CHOL   ROH14729  15.770  12.451   2.816 -0.2243 -0.1841  0.1257
    1CHOL    R114730  15.722  12.331   3.067 -0.1292 -0.1626  0.1540
    1CHOL    R214731  15.919  12.201   3.210 -0.0389 -0.0205  0.1598
    1CHOL    R314732  15.844  12.372   3.408 -0.1192 -0.0251  0.1336
    1CHOL    R414733  16.000  12.165   3.544  0.0105  0.0882  0.1597
    1CHOL    R514734  15.799  12.230   3.595 -0.0224 -0.0153  0.1645
    1CHOL    C114735  15.977  12.305   3.924 -0.0370  0.1479  0.1351
    1CHOL    C214736  16.203  12.274   4.190 -0.2474  0.1765 -0.4444
    1CHOL   ROH14737  21.051   6.813   3.221 -0.1783 -0.0734 -0.0231
    1CHOL    R114738  20.933   6.699   3.452  0.0677 -0.1440  0.0681
    1CHOL    R214739  21.045   6.724   3.703  0.1566  0.0676  0.0074
    1CHOL    R314740  20.799   6.822   3.767  0.0700 -0.2072  0.0935
    1CHOL    R414741  20.947   6.819   4.021  0.2289  0.1507  0.0048
    1CHOL    R514742  20.753   6.728   3.983  0.3233 -0.1254  0.1844
    1CHOL    C114743  20.659   6.966   4.266  0.1887 -0.0589  0.0843
    1CHOL    C214744  20.721   7.077   4.682  0.1676 -0.0434 -0.2279
    1CHOL   ROH14745  14.283   2.886   6.543  0.0228  0.1739 -0.0193
    1CHOL    R114746  14.337   2.858   6.267 -0.1106  0.2733 -0.0553
    1CHOL    R214747  14.399   3.074   6.105  0.0807  0.2976  0.0496
    1CHOL    R314748  14.618   2.925   6.045 -0.1148  0.0779 -0.1192
    1CHOL    R414749  14.591   3.113   5.821  0.0625  0.2877  0.0355
    1CHOL    R514750  14.606   2.896   5.807 -0.2050  0.2800 -0.1400
    1CHOL    C114751  14.909   2.996   5.599 -0.1306  0.0755 -0.1299
    1CHOL    C214752  14.816   3.183   5.222 -0.2729  0.0011  0.0548
    1CHOL   ROH14753  21.385  27.604   3.684  0.0373  0.0736  0.0611
    1CHOL    R114754  21.420  27.728   3.936  0.0372  0.1240  0.0361
    1CHOL    R214755  21.264  27.941   4.020 -0.0304  0.0742  0.0360
    1CHOL    R314756  21.220  27.781   4.236  0.0762  0.0891  0.0686
    1CHOL    R414757  21.156  28.052   4.329 -0.1888  0.0544 -0.0122
    1CHOL    R514758  21.294  27.911   4.422 -0.0763  0.2041  0.0491
    1CHOL    C114759  21.050  27.966   4.711 -0.1797  0.0547 -0.0095
    1CHOL    C214760  20.903  27.886   5.085  0.1612  0.1980  0.0220
    1CHOL   ROH14761  10.733  16.138   6.141 -0.4821 -0.0833 -0.0319
    1CHOL    R114762  10.923  16.070   5.942 -0.2789 -0.1345  0.1788
    1CHOL    R214763  10.909  15.835   5.797 -0.2184 -0.1003  0.1177
    1CHOL    R314764  10.919  16.004   5.584  0.1123 -0.0641  0.1605
    1CHOL    R414765  10.995  15.743   5.476 -0.3271 -0.1707  0.1092
    1CHOL    R514766  11.107  15.928   5.457  0.0014 -0.3624  0.1733
    1CHOL    C114767  11.053  15.847   5.088 -0.0797 -0.1776  0.1448
    1CHOL    C214768  11.124  15.923   4.692 -0.2162 -0.0397  0.1606
    1CHOL   ROH14769  28.539  10.541   5.539  0.0086  0.1968  0.1541
    1CHOL    R114770  28.499  10.710   5.316  0.2031  0.1721  0.1001
    1CHOL    R214771  28.708  10.805   5.162  0.3080 -0.1664  0.0337
    1CHOL    R314772  28.564  10.696   4.958  0.1283 -0.0453  0.0946
    1CHOL    R414773  28.704  10.925   4.837  0.2308 -0.1326  0.0474
    1CHOL    R514774  28.489  10.885   4.831  0.1993  0.0210  0.1509
    1CHOL    C114775  28.566  10.892   4.457  0.0162  0.0025  0.1124
    1CHOL    C214776  28.425  10.807   4.096  0.2387 -0.1858  0.1074
    1CHOL   ROH14777   3.137   9.280   6.511 -0.1398 -0.1987 -0.0219
    1CHOL    R114778   3.232   9.072   6.344 -0.0567 -0.1864  0.0105
    1CHOL    R214779   3.215   9.084   6.068 -0.0559 -0.2345  0.0084
    1CHOL    R314780   3.483   9.038   6.082 -0.0388 -0.1287  0.0205
    1CHOL    R414781   3.400   8.918   5.827 -0.0266 -0.3953  0.1421
    1CHOL    R514782   3.511   8.820   5.987  0.0260 -0.2074  0.2213
    1CHOL    C114783   3.759   8.779   5.700  0.0068 -0.3904  0.2306
    1CHOL    C214784   4.062   9.039   5.779 -0.0348  0.0295  0.1466
    1CHOL   ROH14785  19.668  16.742   6.127 -0.0835 -0.1769  0.0671
    1CHOL    R114786  19.671  16.855   5.867 -0.0172 -0.1268  0.0889
    1CHOL    R214787  19.904  16.925   5.737  0.0167 -0.1591  0.1350
    1CHOL    R314788  19.806  16.765   5.541  0.0057 -0.0981  0.0906
    1CHOL    R414789  19.959  16.971   5.399 -0.0763 -0.0010  0.1414
    1CHOL    R514790  19.751  16.916   5.363 -0.0725 -0.0324  0.1683
    1CHOL    C114791  19.898  16.848   5.018 -0.1405  0.1475  0.1032
    1CHOL    C214792  19.908  16.888   4.639  0.2552  0.1165  0.1119
    1CHOL   ROH14793  12.636  19.724   2.874  0.1919  0.1155  0.1217
    1CHOL    R114794  12.715  19.624   3.126 -0.1421 -0.0782  0.1501
    1CHOL    R214795  12.794  19.788   3.334  0.3084 -0.2743  0.1361
    1CHOL    R314796  12.601  19.654   3.471 -0.1075  0.3131  0.1270
    1CHOL    R414797  12.776  19.765   3.678  0.2165 -0.2165  0.1354
    1CHOL    R514798  12.716  19.556   3.656 -0.4163 -0.0381  0.1348
    1CHOL    C114799  12.585  19.625   4.007 -0.2266  0.3679  0.1267
    1CHOL    C214800  12.637  19.596   4.449 -0.0256 -0.0402  0.1032
    1CHOL   ROH14801  15.899  13.466   6.074 -0.0465  0.1216  0.1102
    1CHOL    R114802  15.918  13.359   5.813  0.2069  0.1478  0.1175
    1CHOL    R214803  15.707  13.364   5.634  0.2237 -0.2785  0.0841
    1CHOL    R314804  15.890  13.486   5.472  0.0090  0.0766  0.1078
    1CHOL    R414805  15.687  13.378   5.289  0.3891 -0.5646  0.0634
    1CHOL    R514806  15.903  13.343   5.280  0.4845 -0.0215  0.2117
    1CHOL    C114807  15.847  13.500   4.937  0.2832 -0.3971  0.0730
    1CHOL    C214808  15.740  13.370   4.581  0.2932 -0.0245  0.1450
    1CHOL   ROH14809  11.441  11.761   3.657 -0.0897 -0.1080  0.0309
    1CHOL    R114810  11.358  11.657   3.907 -0.0520  0.0358  0.1028
    1CHOL    R214811  11.536  11.550   4.090 -0.0641 -0.1554  0.0024
    1CHOL    R314812  11.422  11.731   4.258  0.2719  0.0134  0.0491
    1CHOL    R414813  11.612  11.583   4.426 -0.1502 -0.5202  0.0575
    1CHOL    R514814  11.399  11.613   4.465 -0.0997 -0.0525 -0.0284
    1CHOL    C114815  11.549  11.771   4.779  0.1156 -0.5741  0.1336
    1CHOL    C214816  11.768  11.978   5.007  0.0470  0.0209 -0.1791
    1CHOL   ROH14817   9.383   8.727   3.896 -0.1119  0.2075 -0.0645
    1CHOL    R114818   9.544   8.677   4.123 -0.0930  0.1144 -0.0987
    1CHOL    R214819   9.593   8.869   4.315 -0.0385  0.0510 -0.0482
    1CHOL    R314820   9.500   8.677   4.484 -0.0497  0.0169 -0.0934
    1CHOL    R414821   9.636   8.869   4.659  0.1373 -0.1369 -0.0694
    1CHOL    R514822   9.671   8.654   4.650  0.0234 -0.1502 -0.1917
    1CHOL    C114823   9.573   8.690   5.017  0.2290 -0.2779 -0.1237
    1CHOL    C214824   9.632   8.535   5.434 -0.2665  0.0197 -0.2480
    1CHOL   ROH14825   9.319  29.599   3.911  0.1078 -0.1252 -0.2246
    1CHOL    R114826   9.451  29.470   4.126 -0.0043  0.2384  0.0634
    1CHOL    R214827   9.687  29.331   4.092 -0.2658 -0.2699  0.3216
    1CHOL    R314828   9.774  29.495   4.291  0.1290  0.1296 -0.1817
    1CHOL    R414829   9.963  29.270   4.292 -0.3886 -0.3023  0.4828
    1CHOL    R514830   9.850  29.346   4.463 -0.2017  0.4749  0.2637
    1CHOL    C114831  10.205  29.389   4.595 -0.0907  0.0541  0.1044
    1CHOL    C214832  10.295  29.640   4.874 -0.1690  0.1124  0.0107
    1CHOL   ROH14833  24.254  17.635   5.672 -0.1753  0.0443  0.0659
    1CHOL    R114834  24.071  17.614   5.458 -0.0896  0.1459 -0.0167
    1CHOL    R214835  24.010  17.827   5.293  0.0740  0.1892 -0.0209
    1CHOL    R314836  24.082  17.654   5.096  0.0863  0.1796 -0.0082
    1CHOL    R414837  23.933  17.866   4.958 -0.2356 -0.0267  0.0255
    1CHOL    R514838  23.894  17.652   4.948 -0.0296 -0.0706  0.1450
    1CHOL    C114839  23.955  17.726   4.579 -0.4030 -0.1599  0.0648
    1CHOL    C214840  23.649  18.131   4.452  0.3199 -0.0001 -0.0339
    1CHOL   ROH14841  10.337  19.778   2.633  0.0507  0.0243  0.1580
    1CHOL    R114842  10.193  19.801   2.876  0.0691 -0.1869  0.1891
    1CHOL    R214843  10.287  19.698   3.115  0.3452  0.0886  0.1995
    1CHOL    R314844  10.248  19.952   3.202 -0.1536  0.0383  0.1220
    1CHOL    R414845  10.226  19.786   3.443  0.3281  0.0839  0.1972
    1CHOL    R514846  10.080  19.931   3.372 -0.0215 -0.2575  0.2176
    1CHOL    C114847  10.153  20.076   3.717 -0.1512  0.0342  0.1233
    1CHOL    C214848  10.069  20.249   4.122 -0.0484 -0.0900 -0.0510
    1CHOL   ROH14849  11.963  24.253   5.344  0.0426  0.1750 -0.0695
    1CHOL    R114850  12.042  24.066   5.146  0.2074  0.3223 -0.1421
    1CHOL    R214851  11.869  23.879   5.040  0.4423  0.0353 -0.0227
    1CHOL    R314852  11.948  23.988   4.804  0.0808  0.1836 -0.0750
    1CHOL    R414853  11.825  23.732   4.731  0.6332 -0.1097  0.0193
    1CHOL    R514854  12.024  23.801   4.675  0.4487  0.3414 -0.0851
    1CHOL    C114855  11.872  23.748   4.328  0.4030 -0.0557 -0.0056
    1CHOL    C214856  11.949  23.352   4.316 -0.1992  0.2731  0.0861
    1CHOL   ROH14857   8.892  25.906   5.225  0.0448  0.1277  0.0471
    1CHOL    R114858   8.884  25.693   5.039  0.0691  0.0610  0.1228
    1CHOL    R214859   8.679  25.663   4.856  0.0469 -0.0564  0.1673
    1CHOL    R314860   8.883  25.658   4.676  0.0186 -0.0657  0.1350
    1CHOL    R414861   8.652  25.550   4.530 -0.0200 -0.0191  0.1602
    1CHOL    R514862   8.848  25.456   4.552 -0.0291 -0.0477  0.1197
    1CHOL    C114863   8.828  25.481   4.172 -0.0850 -0.0050  0.1253
    1CHOL    C214864   8.900  25.627   3.924 -0.1359 -0.3099  0.0420
    1CHOL   ROH14865  14.686  19.184   2.618 -0.1889 -0.0136  0.0702
    1CHOL    R114866  14.782  19.270   2.869 -0.1407 -0.0391  0.0608
    1CHOL    R214867  14.614  19.351   3.073 -0.0989  0.0212  0.0721
    1CHOL    R314868  14.751  19.163   3.216 -0.1489 -0.0218  0.0656
    1CHOL    R414869  14.616  19.327   3.418 -0.0162  0.0763  0.0752
    1CHOL    R514870  14.829  19.281   3.409 -0.0396 -0.0267  0.0252
    1CHOL    C114871  14.745  19.138   3.753 -0.0160  0.0679  0.0713
    1CHOL    C214872  14.886  19.053   4.103 -0.0931 -0.1028  0.1805
    1CHOL   ROH14873   9.651  20.120   5.850  0.1126  0.0852 -0.0304
    1CHOL    R114874   9.763  20.227   5.613  0.2184  0.0963  0.0238
    1CHOL    R214875  10.032  20.209   5.555  0.2102 -0.0931  0.0398
    1CHOL    R314876   9.942  20.098   5.324  0.1415  0.0749 -0.0145
    1CHOL    R414877  10.221  20.170   5.268  0.1659 -0.0114  0.0005
    1CHOL    R514878  10.047  20.227   5.151  0.1798  0.1278  0.0489
    1CHOL    C114879  10.247  20.042   4.884  0.0773  0.1932 -0.0738
    1CHOL    C214880  10.288  19.906   4.500  0.0988  0.0426 -0.5049
    1CHOL   ROH14881  24.042  28.966   3.715 -0.0031  0.1399 -0.1036
    1CHOL    R114882  23.941  28.872   3.962  0.0200  0.0868 -0.1147
    1CHOL    R214883  24.068  28.918   4.202 -0.0044  0.1085 -0.1069
    1CHOL    R314884  23.827  29.020   4.274 -0.0389  0.0234 -0.1059
    1CHOL    R414885  23.956  28.949   4.528  0.0134  0.1287 -0.1030
    1CHOL    R514886  23.759  28.886   4.460  0.0324  0.0334 -0.0727
    1CHOL    C114887  23.664  29.063   4.785 -0.0095  0.0591 -0.1000
    1CHOL    C214888  23.298  29.081   5.099  0.1759 -0.0391  0.0045
    1CHOL   ROH14889  21.060  11.707   5.685  0.0653  0.1312 -0.0485
    1CHOL    R114890  20.926  11.741   5.438 -0.2031 -0.1402  0.0577
    1CHOL    R214891  21.061  11.777   5.199 -0.4666  0.2929 -0.0276
    1CHOL    R314892  20.910  11.566   5.119  0.0321 -0.0822  0.0132
    1CHOL    R414893  21.012  11.683   4.870 -0.3576  0.1984 -0.0167
    1CHOL    R514894  20.804  11.642   4.918 -0.2365 -0.3304  0.0608
    1CHOL    C114895  20.842  11.430   4.604  0.1737 -0.2078  0.0278
    1CHOL    C214896  20.850  11.232   4.361  0.2935  0.2189 -0.1220
    1CHOL   ROH14897  11.263  10.906   6.392  0.0228 -0.0598  0.0659
    1CHOL    R114898  11.036  10.792   6.268 -0.0067 -0.0577  0.1187
    1CHOL    R214899  10.832  10.674   6.412  0.0034 -0.0139  0.1682
    1CHOL    R314900  10.676  10.848   6.273 -0.0007 -0.0224  0.1635
    1CHOL    R414901  10.534  10.592   6.257  0.0353 -0.0391  0.1209
    1CHOL    R514902  10.592  10.719   6.089  0.0405 -0.0162  0.1407
    1CHOL    C114903  10.215  10.707   6.035  0.0492 -0.0608  0.0897
    1CHOL    C214904   9.932  10.800   5.945 -0.0526  0.1596  0.0642
    1CHOL   ROH14905   2.021  18.542   4.049  0.1031 -0.4129 -0.5002
    1CHOL    R114906   2.164  18.490   4.287  0.0551 -0.0696 -0.3951
    1CHOL    R214907   2.121  18.265   4.440 -0.1001  0.2398  0.0172
    1CHOL    R314908   2.389  18.231   4.409 -0.1194  0.0083  0.0936
    1CHOL    R414909   2.343  18.199   4.697 -0.2208  0.1116  0.0887
    1CHOL    R514910   2.485  18.335   4.603 -0.0827 -0.0277  0.0951
    1CHOL    C114911   2.724  18.130   4.817 -0.3093 -0.1794  0.2026
    1CHOL    C214912   2.905  18.389   4.941  0.0127  0.1200 -0.2485
    1CHOL   ROH14913  13.132  18.403   5.854  0.0488  0.1071  0.0220
    1CHOL    R114914  13.289  18.364   5.622  0.0114  0.0410  0.0074
    1CHOL    R214915  13.179  18.341   5.370 -0.0288 -0.0060  0.0294
    1CHOL    R314916  13.351  18.543   5.311 -0.0199 -0.0327 -0.0415
    1CHOL    R414917  13.307  18.406   5.056 -0.1554 -0.0219 -0.0250
    1CHOL    R514918  13.500  18.449   5.149 -0.1063 -0.0544 -0.1085
    1CHOL    C114919  13.543  18.634   4.818 -0.2209 -0.0544 -0.1242
    1CHOL    C214920  13.696  18.859   4.509  0.0394 -0.1235 -0.1779
    1CHOL   ROH14921  17.828   9.565   5.916  0.2526  0.2052 -0.0697
    1CHOL    R114922  17.855   9.438   5.665  0.1154  0.1588 -0.0613
    1CHOL    R214923  17.647   9.301   5.545  0.0430  0.1567  0.0667
    1CHOL    R314924  17.702   9.466   5.336 -0.0474  0.1151  0.0101
    1CHOL    R414925  17.591   9.224   5.212  0.0544  0.0253  0.0951
    1CHOL    R514926  17.781   9.320   5.164  0.0067  0.0963  0.0515
    1CHOL    C114927  17.610   9.335   4.823 -0.0233 -0.0898  0.0582
    1CHOL    C214928  17.557   9.010   4.624  0.1020  0.2036 -0.0528
    1CHOL   ROH14929  19.056  17.732   6.362  0.1809 -0.0218  0.1854
    1CHOL    R114930  19.220  17.712   6.132  0.0229  0.0057  0.0715
    1CHOL    R214931  19.142  17.573   5.906 -0.1504  0.0764  0.0875
    1CHOL    R314932  19.197  17.809   5.782 -0.1901  0.0968  0.1104
    1CHOL    R414933  19.180  17.613   5.565 -0.1802  0.1211  0.0896
    1CHOL    R514934  19.345  17.749   5.604 -0.1945  0.1364  0.0932
    1CHOL    C114935  19.253  17.857   5.250 -0.2344  0.1663  0.1122
    1CHOL    C214936  19.304  18.009   4.861  0.0769 -0.0666  0.0479
    1CHOL   ROH14937  21.417  17.947   3.003  0.2315 -0.3234 -0.1934
    1CHOL    R114938  21.522  18.003   3.260  0.5169 -0.1907 -0.3380
    1CHOL    R214939  21.379  17.958   3.492  0.5235  0.5386 -0.1887
    1CHOL    R314940  21.599  17.814   3.562  0.1927  0.0786 -0.0852
    1CHOL    R414941  21.466  17.876   3.816  0.4091  0.6933 -0.1186
    1CHOL    R514942  21.674  17.916   3.765  0.4959  0.1259 -0.2211
    1CHOL    C114943  21.724  17.693   4.070  0.0317  0.3504  0.0194
    1CHOL    C214944  21.799  17.621   4.488  0.1625  0.1730  0.1855
    1CHOL   ROH14945  13.656  17.112   6.080  0.0570  0.2574 -0.0377
    1CHOL    R114946  13.804  17.079   5.841 -0.0987  0.3147 -0.1411
    1CHOL    R214947  13.815  16.839   5.705  0.0917  0.2547 -0.0207
    1CHOL    R314948  13.731  16.992   5.495 -0.2723  0.0376 -0.0344
    1CHOL    R414949  13.930  16.809   5.380  0.1535  0.4930 -0.0212
    1CHOL    R514950  13.929  17.027   5.365 -0.3581  0.4883 -0.0439
    1CHOL    C114951  13.919  16.934   4.995 -0.1517  0.4246 -0.0337
    1CHOL    C214952  14.150  16.851   4.832  0.0672  0.0445  0.1085
    1CHOL   ROH14953  11.099   8.272   6.567  0.2940 -0.0562 -0.0842
    1CHOL    R114954  11.042   8.419   6.333  0.0043  0.0358  0.0436
    1CHOL    R214955  11.128   8.340   6.083  0.1230  0.3969 -0.0313
    1CHOL    R314956  10.864   8.362   6.020  0.0764 -0.0263  0.0142
    1CHOL    R414957  11.001   8.348   5.761  0.0849  0.5412 -0.0129
    1CHOL    R514958  10.860   8.502   5.826 -0.2003  0.1998  0.1814
    1CHOL    C114959  10.679   8.373   5.516  0.0203  0.2295  0.0401
    1CHOL    C214960  10.289   8.174   5.447  0.0141  0.1072  0.2327
    1CHOL   ROH14961  22.316   9.057   6.031 -0.0162  0.1098 -0.0952
    1CHOL    R114962  22.388   8.974   5.770  0.0706  0.0901 -0.0651
    1CHOL    R214963  22.618   8.830   5.718  0.0294 -0.0122  0.0371
    1CHOL    R314964  22.445   8.657   5.600  0.0062  0.0742 -0.0551
    1CHOL    R414965  22.709   8.537   5.559 -0.0448 -0.1273  0.2058
    1CHOL    R514966  22.561   8.580   5.405  0.1154 -0.0701  0.0668
    1CHOL    C114967  22.599   8.204   5.355 -0.1089 -0.1136  0.2177
    1CHOL    C214968  22.646   7.927   4.999  0.0868  0.1833 -0.1476
    1CHOL   ROH14969  18.082  22.780   3.768 -0.1272 -0.0509 -0.1041
    1CHOL    R114970  17.991  22.649   4.002 -0.0830 -0.0534 -0.0887
    1CHOL    R214971  18.092  22.707   4.253 -0.0648 -0.0276 -0.1014
    1CHOL    R314972  17.829  22.746   4.313 -0.0637 -0.0646 -0.0763
    1CHOL    R414973  17.964  22.727   4.573 -0.0057  0.1583 -0.0896
    1CHOL    R514974  17.792  22.610   4.507  0.0162  0.0610  0.0277
    1CHOL    C114975  17.643  22.775   4.817  0.0300  0.2338 -0.0590
    1CHOL    C214976  17.745  22.886   5.224 -0.0002 -0.1613  0.1087
    1CHOL   ROH14977  23.306  12.916   2.907 -0.2140  0.3379 -0.2033
    1CHOL    R114978  23.176  13.000   3.144 -0.1640  0.1445 -0.1074
    1CHOL    R214979  23.113  12.825   3.349 -0.0520 -0.0093 -0.2043
    1CHOL    R314980  23.252  13.003   3.500 -0.0536 -0.0726 -0.1286
    1CHOL    R414981  23.078  12.862   3.690 -0.2432  0.0291 -0.2282
    1CHOL    R514982  23.093  13.078   3.663 -0.1144  0.0186 -0.2309
    1CHOL    C114983  23.187  13.051   4.032 -0.3567 -0.0091 -0.1711
    1CHOL    C214984  23.377  13.155   4.304  0.2206 -0.0823 -0.0744
    1CHOL   ROH14985  12.993  18.094   2.692 -0.3165  0.0872 -0.0423
    1CHOL    R114986  13.113  18.103   2.948 -0.3519  0.0973 -0.0260
    1CHOL    R214987  12.987  18.006   3.174 -0.1980 -0.3006 -0.1112
    1CHOL    R314988  13.217  17.862   3.200  0.0549  0.0843 -0.2067
    1CHOL    R414989  13.181  17.993   3.460 -0.3829 -0.4578  0.0075
    1CHOL    R514990  13.359  18.001   3.334 -0.3047  0.1078  0.1510
    1CHOL    C114991  13.509  17.851   3.651 -0.2540 -0.1876 -0.0129
    1CHOL    C214992  13.679  17.684   3.990  0.1169 -0.1131  0.0865
    1CHOL   ROH14993   9.715  19.244   6.094 -0.0424 -0.1977 -0.0941
    1CHOL    R114994   9.671  19.113   5.847  0.0000 -0.2146 -0.0923
    1CHOL    R214995   9.522  19.226   5.643 -0.1115 -0.3052 -0.0600
    1CHOL    R314996   9.746  19.177   5.497 -0.1051 -0.1484 -0.1028
    1CHOL    R414997   9.538  19.236   5.298 -0.0796  0.1326 -0.0470
    1CHOL    R514998   9.667  19.059   5.304 -0.1044  0.1068 -0.2601
    1CHOL    C114999   9.757  19.196   4.960 -0.0567  0.5346 -0.0786
    1CHOL    C215000   9.567  19.379   4.777  0.2208 -0.3495  0.0317
    1CHOL   ROH15001  13.528   8.163   3.486 -0.0749 -0.0226 -0.0494
    1CHOL    R115002  13.580   7.990   3.704 -0.1721 -0.1109 -0.0961
    1CHOL    R215003  13.726   8.069   3.925 -0.1285 -0.2523 -0.0743
    1CHOL    R315004  13.506   7.984   4.060 -0.1762 -0.1658 -0.0979
    1CHOL    R415005  13.712   8.019   4.267 -0.1631 -0.3166 -0.0849
    1CHOL    R515006  13.593   7.840   4.230 -0.2561 -0.2472 -0.1261
    1CHOL    C115007  13.497   7.910   4.593 -0.2288 -0.2728 -0.1138
    1CHOL    C215008  13.543   8.125   4.785 -0.1668  0.2225  0.0759
    1CHOL   ROH15009   8.309  10.608   3.877  0.0834 -0.1655  0.0250
    1CHOL    R115010   8.274  10.797   4.085  0.0057 -0.1874  0.0308
    1CHOL    R215011   8.191  10.725   4.339  0.0235 -0.2275  0.0250
    1CHOL    R315012   8.416  10.856   4.415 -0.0283 -0.1464  0.0386
    1CHOL    R415013   8.240  10.868   4.649 -0.1292 -0.0267 -0.0429
    1CHOL    R515014   8.336  11.037   4.551 -0.1130 -0.0734 -0.1075
    1CHOL    C115015   8.480  11.074   4.902 -0.2657  0.1665 -0.0703
    1CHOL    C215016   8.647  11.186   5.287  0.1194 -0.3521 -0.3631
    1CHOL   ROH15017  19.163  10.759   5.730 -0.3621 -0.2175 -0.0290
    1CHOL    R115018  19.209  10.584   5.513 -0.1068 -0.1578 -0.0231
    1CHOL    R215019  19.018  10.532   5.320 -0.0133 -0.3964 -0.0532
    1CHOL    R315020  19.216  10.609   5.150 -0.0829 -0.1471 -0.0219
    1CHOL    R415021  19.025  10.463   4.981  0.1268 -0.3858 -0.0529
    1CHOL    R515022  19.239  10.425   4.998  0.1736 -0.1178 -0.0200
    1CHOL    C115023  19.214  10.495   4.624  0.1425 -0.1452 -0.0231
    1CHOL    C215024  19.210  10.516   4.342  0.0263  0.1462 -0.0528
    1CHOL   ROH15025   8.261  13.587   6.129 -0.1495  0.2307 -0.0959
    1CHOL    R115026   8.181  13.482   5.878 -0.1659  0.1550 -0.0589
    1CHOL    R215027   8.223  13.616   5.641 -0.1833  0.0848 -0.1021
    1CHOL    R315028   8.345  13.384   5.568 -0.1862  0.0641 -0.0416
    1CHOL    R415029   8.305  13.529   5.316 -0.0696  0.0544 -0.0653
    1CHOL    R515030   8.242  13.326   5.360 -0.1144  0.0653 -0.0777
    1CHOL    C115031   8.467  13.261   5.059 -0.0064  0.0176  0.0136
    1CHOL    C215032   8.300  13.528   4.813 -0.3747  0.1210  0.3690
    1CHOL   ROH15033  22.150  19.539   5.390  0.0674  0.0432 -0.3743
    1CHOL    R115034  22.066  19.697   5.171 -0.1678 -0.1068 -0.3948
    1CHOL    R215035  21.842  19.638   5.021 -0.4167 -0.1202 -0.0147
    1CHOL    R315036  21.772  19.893   5.083 -0.1895 -0.0262 -0.1414
    1CHOL    R415037  21.547  19.790   4.926 -0.3176  0.0696 -0.0219
    1CHOL    R515038  21.659  19.973   4.887 -0.1745 -0.0458 -0.1569
    1CHOL    C115039  21.309  20.119   4.928 -0.0437  0.2690 -0.1457
    1CHOL    C215040  21.238  20.578   4.827 -0.2154  0.1193  0.0643
    1CHOL   ROH15041   8.661  27.612   3.646 -0.0501  0.0566 -0.1632
    1CHOL    R115042   8.706  27.491   3.898 -0.0157  0.1030 -0.1463
    1CHOL    R215043   8.588  27.252   3.971  0.0430  0.0878 -0.1083
    1CHOL    R315044   8.844  27.177   4.020  0.0609  0.1544 -0.1026
    1CHOL    R415045   8.684  27.017   4.206  0.0978  0.1001 -0.1175
    1CHOL    R515046   8.853  27.145   4.257  0.0610  0.1440 -0.1042
    1CHOL    C115047   8.980  26.809   4.388  0.1473  0.1721 -0.1177
    1CHOL    C215048   9.066  26.398   4.329  0.1539 -0.0736  0.0790
    1CHOL   ROH15049  22.412   2.447   3.824  0.0945  0.0408 -0.0553
    1CHOL    R115050  22.469   2.304   4.061 -0.0582  0.0203 -0.0317
    1CHOL    R215051  22.680   2.369   4.227  0.0274 -0.1925 -0.0568
    1CHOL    R315052  22.486   2.377   4.417  0.0485  0.0684 -0.0468
    1CHOL    R415053  22.728   2.296   4.562 -0.0267 -0.1343 -0.0365
    1CHOL    R515054  22.536   2.192   4.561 -0.1316  0.0640  0.0095
    1CHOL    C115055  22.574   2.261   4.935 -0.0385  0.1447 -0.0150
    1CHOL    C215056  22.327   2.204   5.250 -0.3256  0.0339  0.2210
    1CHOL   ROH15057  13.818  10.577   6.434  0.0708 -0.0422 -0.0186
    1CHOL    R115058  13.945  10.549   6.182  0.0081 -0.0172 -0.0529
    1CHOL    R215059  13.830  10.411   5.972 -0.0502  0.0159 -0.0431
    1CHOL    R315060  13.873  10.644   5.838 -0.0702  0.0305 -0.0237
    1CHOL    R415061  13.870  10.437   5.630 -0.0610  0.0482 -0.0420
    1CHOL    R515062  14.027  10.585   5.664 -0.0691  0.0567 -0.0327
    1CHOL    C115063  13.933  10.671   5.305 -0.0852  0.0818 -0.0231
    1CHOL    C215064  14.058  10.691   4.981 -0.2178 -0.0327 -0.0421
    1CHOL   ROH15065  18.246  22.148   6.739 -0.0438  0.0079  0.0117
    1CHOL    R115066  18.088  22.185   6.507 -0.0343  0.0505  0.0124
    1CHOL    R215067  18.135  22.388   6.325 -0.0262  0.0793  0.0484
    1CHOL    R315068  18.142  22.183   6.147 -0.0226  0.1101  0.0137
    1CHOL    R415069  18.171  22.425   5.983 -0.1583  0.1450  0.0412
    1CHOL    R515070  18.024  22.266   5.956 -0.1163  0.1020  0.0694
    1CHOL    C115071  18.199  22.254   5.617 -0.2335  0.2118  0.0045
    1CHOL    C215072  18.241  22.500   5.250 -0.0629  0.0509 -0.1152
    1CHOL   ROH15073  26.259   7.639   4.935  0.2125  0.1111 -0.0113
    1CHOL    R115074  26.191   7.892   4.829  0.0811  0.0389 -0.1020
    1CHOL    R215075  26.139   7.933   4.561 -0.0811 -0.1124 -0.0939
    1CHOL    R315076  25.907   8.040   4.656 -0.0597 -0.1320 -0.0187
    1CHOL    R415077  25.871   8.029   4.365 -0.1554 -0.1421 -0.0062
    1CHOL    R515078  25.847   8.204   4.493 -0.1297 -0.1416 -0.0019
    1CHOL    C115079  25.498   8.185   4.340 -0.1785 -0.1776  0.1158
    1CHOL    C215080  25.394   8.057   4.062 -0.4401  0.0120 -0.1620
    1CHOL   ROH15081   7.630  14.267   6.282 -0.0799  0.1181 -0.0822
    1CHOL    R115082   7.640  14.167   6.018 -0.1540  0.0529 -0.0601
    1CHOL    R215083   7.421  14.168   5.850 -0.1357  0.2417 -0.0838
    1CHOL    R315084   7.590  14.299   5.683  0.0165  0.0341 -0.0933
    1CHOL    R415085   7.458  14.100   5.513 -0.2098  0.1698 -0.0770
    1CHOL    R515086   7.673  14.129   5.536 -0.1767 -0.0744 -0.0775
    1CHOL    C115087   7.638  14.183   5.160 -0.1104 -0.0666 -0.0829
    1CHOL    C215088   7.563  13.891   4.944  0.0895  0.0373  0.1549
    1CHOL   ROH15089  17.576  23.100   6.672 -0.0581 -0.1654  0.0478
    1CHOL    R115090  17.666  22.947   6.452 -0.2632 -0.1297 -0.0615
    1CHOL    R215091  17.554  22.968   6.201 -0.2156  0.2210 -0.0537
    1CHOL    R315092  17.811  23.014   6.125 -0.1427 -0.0947 -0.0010
    1CHOL    R415093  17.701  22.843   5.914 -0.3624  0.1879 -0.1147
    1CHOL    R515094  17.883  22.807   6.029 -0.4234 -0.1364 -0.1183
    1CHOL    C115095  18.028  22.814   5.676 -0.3812 -0.1271 -0.1000
    1CHOL    C215096  18.188  23.025   5.395 -0.1433  0.1439  0.1828
    1CHOL   ROH15097  10.816  17.133   5.862 -0.1028  0.1498  0.0540
    1CHOL    R115098  10.708  16.996   5.639 -0.0081  0.0687  0.0587
    1CHOL    R215099  10.521  17.111   5.471 -0.1081 -0.0785  0.0705
    1CHOL    R315100  10.700  17.043   5.278 -0.0658  0.0636  0.0593
    1CHOL    R415101  10.438  16.983   5.161 -0.0315 -0.0324  0.0317
    1CHOL    R515102  10.607  16.847   5.177  0.0362  0.0467  0.0007
    1CHOL    C115103  10.558  16.846   4.799  0.0527  0.1284 -0.0016
    1CHOL    C215104  10.566  16.942   4.379  0.1006 -0.0909  0.1109
    1CHOL   ROH15105   7.627  17.490   5.562  0.0242 -0.1169  0.2590
    1CHOL    R115106   7.709  17.437   5.297  0.0319  0.1221  0.2136
    1CHOL    R215107   7.953  17.519   5.197  0.1313  0.0104  0.3648
    1CHOL    R315108   7.980  17.256   5.135 -0.1013  0.0576  0.0589
    1CHOL    R415109   8.212  17.386   5.010  0.1130 -0.0286  0.3662
    1CHOL    R515110   8.067  17.257   4.911  0.0410  0.2422  0.1142
    1CHOL    C115111   8.388  17.062   4.843 -0.1165 -0.0053  0.0800
    1CHOL    C215112   8.392  16.839   4.533  0.1942 -0.0901 -0.2108
    1CHOL   ROH15113  21.624  16.280   5.697 -0.0232  0.1236 -0.0313
    1CHOL    R115114  21.749  16.139   5.485  0.0734  0.1431  0.0124
    1CHOL    R215115  21.607  16.025   5.278  0.1659  0.1574 -0.0602
    1CHOL    R315116  21.774  16.173   5.124  0.2331  0.1708  0.0264
    1CHOL    R415117  21.694  15.948   4.953  0.1287  0.3104 -0.1059
    1CHOL    R515118  21.898  16.010   4.998  0.1583  0.1907 -0.0699
    1CHOL    C115119  21.902  16.042   4.618  0.1699  0.4118 -0.0510
    1CHOL    C215120  21.934  15.828   4.349 -0.2300 -0.0406 -0.1142
    1CHOL   ROH15121  14.464  19.974   6.466  0.2802  0.0592  0.0749
    1CHOL    R115122  14.660  19.949   6.263  0.1807 -0.0725 -0.0055
    1CHOL    R215123  14.723  19.706   6.146 -0.0440 -0.1106 -0.0481
    1CHOL    R315124  14.668  19.840   5.916 -0.0397 -0.0536 -0.0173
    1CHOL    R415125  14.860  19.632   5.838 -0.0215 -0.0219 -0.0591
    1CHOL    R515126  14.878  19.846   5.800 -0.0319 -0.0114 -0.0024
    1CHOL    C115127  14.889  19.713   5.442 -0.0025  0.0837 -0.0366
    1CHOL    C215128  14.859  19.787   5.030 -0.2441  0.2886  0.1832
    1CHOL   ROH15129  12.139  18.602   2.768 -0.0506  0.0610  0.0084
    1CHOL    R115130  12.161  18.733   3.018  0.3414  0.1478 -0.0716
    1CHOL    R215131  12.002  18.669   3.235  0.1924  0.7105 -0.0123
    1CHOL    R315132  12.241  18.639   3.360  0.1276  0.1297 -0.0266
    1CHOL    R415133  12.042  18.629   3.576  0.1144  0.5741 -0.0187
    1CHOL    R515134  12.217  18.760   3.565  0.4249  0.1640 -0.0112
    1CHOL    C115135  12.290  18.578   3.892  0.0076 -0.0485 -0.0360
    1CHOL    C215136  12.445  18.365   4.199  0.0259 -0.0952  0.1039
    1CHOL   ROH15137  13.154  16.762   2.731 -0.1951  0.3093 -0.0193
    1CHOL    R115138  13.266  16.818   2.985 -0.1259  0.0286  0.0119
    1CHOL    R215139  13.206  17.048   3.126  0.1263  0.0025  0.1601
    1CHOL    R315140  13.140  16.872   3.323 -0.0546 -0.0491  0.0512
    1CHOL    R415141  13.143  17.134   3.455  0.0696 -0.1173  0.1811
    1CHOL    R515142  13.252  16.956   3.517 -0.0682 -0.2184  0.1305
    1CHOL    C115143  13.044  17.019   3.831 -0.1337 -0.2378  0.0907
    1CHOL    C215144  12.932  17.080   4.338 -0.1468 -0.0028  0.2533
    1CHOL   ROH15145  11.691   2.275   6.757  0.0142  0.0636  0.1005
    1CHOL    R115146  11.586   2.459   6.570  0.0572 -0.0191 -0.0052
    1CHOL    R215147  11.746   2.634   6.428  0.0677  0.0704  0.1171
    1CHOL    R315148  11.622   2.524   6.213  0.3221 -0.0273  0.0193
    1CHOL    R415149  11.739   2.772   6.111 -0.0486  0.2151  0.1824
    1CHOL    R515150  11.531   2.711   6.095  0.0577 -0.1173  0.0803
    1CHOL    C115151  11.618   2.749   5.725  0.1224  0.2076  0.1290
    1CHOL    C215152  11.566   3.091   5.579 -0.1180  0.0419  0.1653
    1CHOL   ROH15153  18.753  21.520   6.964 -0.0711 -0.1002  0.0951
    1CHOL    R115154  18.596  21.477   6.732  0.1268 -0.1383 -0.0324
    1CHOL    R215155  18.411  21.661   6.642 -0.1079 -0.3435  0.0277
    1CHOL    R315156  18.551  21.640   6.410  0.0579  0.0806  0.0872
    1CHOL    R415157  18.281  21.722   6.328 -0.0315 -0.2956  0.0052
    1CHOL    R515158  18.393  21.549   6.254  0.2947 -0.0496 -0.0768
    1CHOL    C115159  18.336  21.737   5.926  0.1677  0.1304  0.0480
    1CHOL    C215160  18.488  21.784   5.622  0.1858 -0.0158  0.1327
    1CHOL   ROH15161   9.343  21.004   2.799 -0.0684  0.1346 -0.1091
    1CHOL    R115162   9.272  21.009   3.073 -0.0358  0.0906 -0.0995
    1CHOL    R215163   9.414  20.871   3.266 -0.0502  0.0055 -0.1481
    1CHOL    R315164   9.428  21.116   3.384  0.0312 -0.0243 -0.0931
    1CHOL    R415165   9.389  20.927   3.606  0.0510 -0.0706 -0.1280
    1CHOL    R515166   9.269  21.104   3.563  0.0749 -0.0343 -0.0538
    1CHOL    C115167   9.388  21.190   3.915  0.1862 -0.1429 -0.0648
    1CHOL    C215168   9.277  21.518   4.070 -0.0252 -0.2794  0.2101
    1CHOL   ROH15169  17.828  16.713   2.739 -0.0412 -0.0821  0.0531
    1CHOL    R115170  17.938  16.590   2.970 -0.0925 -0.1297  0.0522
    1CHOL    R215171  18.069  16.733   3.166  0.0113 -0.1921  0.0285
    1CHOL    R315172  17.888  16.613   3.330 -0.0451 -0.0730  0.0550
    1CHOL    R415173  18.080  16.740   3.511  0.0486 -0.1698  0.0269
    1CHOL    R515174  18.019  16.531   3.513 -0.0744 -0.1335  0.0494
    1CHOL    C115175  17.916  16.631   3.866  0.0152 -0.0441  0.0507
    1CHOL    C215176  17.883  16.472   4.233  0.1387  0.0956  0.0488
    1CHOL   ROH15177  20.242  18.741   3.134  0.2227  0.3069  0.0905
    1CHOL    R115178  20.178  18.840   3.391  0.2661  0.1383  0.1657
    1CHOL    R215179  20.005  18.709   3.562 -0.0075  0.2306 -0.0431
    1CHOL    R315180  20.214  18.725   3.735 -0.0556 -0.2701  0.0627
    1CHOL    R415181  19.992  18.619   3.895 -0.3996  0.2861 -0.0422
    1CHOL    R515182  20.114  18.793   3.942  0.0076 -0.0095  0.0061
    1CHOL    C115183  20.181  18.582   4.252 -0.6738 -0.1518  0.0574
    1CHOL    C215184  20.017  18.572   4.546  0.2977 -0.0763 -0.1192
    1CHOL   ROH15185  29.151  16.175   4.106  0.2109 -0.1068  0.0804
    1CHOL    R115186  28.886  16.076   4.100  0.1469  0.0696  0.0131
    1CHOL    R215187  28.827  15.807   4.115 -0.0369  0.1095  0.0097
    1CHOL    R315188  28.669  15.886   4.322 -0.0391  0.2245 -0.0367
    1CHOL    R415189  28.527  15.660   4.202  0.0143  0.0896  0.1531
    1CHOL    R515190  28.446  15.859   4.239 -0.0401  0.0949  0.0060
    1CHOL    C115191  28.203  15.649   4.446  0.0407  0.1855  0.1927
    1CHOL    C215192  27.977  15.442   4.349  0.2571  0.0452 -0.1193
    1CHOL   ROH15193  21.098  14.552   2.488 -0.0608  0.1503  0.0644
    1CHOL    R115194  21.045  14.491   2.759  0.0134  0.0033  0.0453
    1CHOL    R215195  21.053  14.233   2.857  0.2342 -0.0276 -0.0533
    1CHOL    R315196  21.227  14.341   3.036  0.1597  0.0477 -0.0273
    1CHOL    R415197  21.180  14.068   3.134  0.0648  0.1121  0.1072
    1CHOL    R515198  21.157  14.253   3.248  0.0372  0.1817 -0.0117
    1CHOL    C115199  21.417  14.074   3.462 -0.1015  0.2632  0.2251
    1CHOL    C215200  21.757  14.178   3.702  0.1521  0.1285 -0.0224
    1CHOL   ROH15201   2.176   6.187   4.841  0.1328 -0.1184 -0.0678
    1CHOL    R115202   2.326   6.424   4.876  0.0784 -0.0985  0.0291
    1CHOL    R215203   2.223   6.647   5.002 -0.0509 -0.0931 -0.0862
    1CHOL    R315204   2.445   6.622   5.158 -0.1792 -0.0508  0.1041
    1CHOL    R415205   2.349   6.896   5.207 -0.1023  0.0329 -0.2065
    1CHOL    R515206   2.550   6.837   5.145 -0.0798 -0.1056 -0.0038
    1CHOL    C115207   2.631   7.017   5.472 -0.2529  0.1461 -0.0982
    1CHOL    C215208   2.496   7.193   5.637  0.0142 -0.1118  0.3625
    1CHOL   ROH15209  16.238   8.157   2.844 -0.0337  0.0620 -0.0555
    1CHOL    R115210  16.057   8.112   3.056 -0.0057 -0.0119 -0.0471
    1CHOL    R215211  16.139   8.081   3.318  0.0205  0.0168 -0.0518
    1CHOL    R315212  15.962   8.282   3.364 -0.0567 -0.0539 -0.0401
    1CHOL    R415213  16.011   8.164   3.628  0.1802  0.1097 -0.0103
    1CHOL    R515214  15.817   8.196   3.534  0.1001 -0.0424  0.1011
    1CHOL    C115215  15.770   8.402   3.852  0.2020  0.0987  0.0250
    1CHOL    C215216  15.713   8.352   4.116  0.1074 -0.0123  0.1405
    1CHOL   ROH15217  10.544  12.755   3.125 -0.0909 -0.2379  0.0436
    1CHOL    R115218  10.567  12.844   3.392 -0.0558 -0.1354  0.0062
    1CHOL    R215219  10.355  12.840   3.569 -0.0011 -0.1841  0.0709
    1CHOL    R315220  10.528  12.698   3.724  0.1172 -0.0427  0.0674
    1CHOL    R415221  10.330  12.804   3.912  0.0601 -0.1683  0.0774
    1CHOL    R515222  10.546  12.826   3.926  0.0448 -0.0110  0.0534
    1CHOL    C115223  10.478  12.649   4.257  0.2068 -0.0277  0.0773
    1CHOL    C215224  10.498  12.798   4.529 -0.2911 -0.0342 -0.1927
    1CHOL   ROH15225  15.721  12.899   2.670 -0.0234 -0.1556 -0.0932
    1CHOL    R115226  15.845  12.914   2.924 -0.0548 -0.2322 -0.0733
    1CHOL    R215227  15.720  13.024   3.145  0.0181 -0.0582 -0.1187
    1CHOL    R315228  15.781  12.785   3.258 -0.2508 -0.0973 -0.0588
    1CHOL    R415229  15.686  12.951   3.481 -0.0911  0.0563 -0.1050
    1CHOL    R515230  15.874  12.842   3.471 -0.2074 -0.1502 -0.0638
    1CHOL    C115231  15.722  12.683   3.783 -0.4072  0.0849 -0.0407
    1CHOL    C215232  15.593  12.514   4.145 -0.0814 -0.2981 -0.1401
    1CHOL   ROH15233  19.556  18.717   6.328  0.0358  0.1652 -0.0532
    1CHOL    R115234  19.726  18.656   6.110  0.0534  0.1640 -0.0393
    1CHOL    R215235  19.639  18.659   5.848  0.0008 -0.1123 -0.0260
    1CHOL    R315236  19.849  18.827   5.814 -0.1657  0.0608 -0.1907
    1CHOL    R415237  19.791  18.726   5.545 -0.1040 -0.2155 -0.1006
    1CHOL    R515238  19.984  18.721   5.647 -0.0858  0.0534 -0.1216
    1CHOL    C115239  20.078  18.923   5.337 -0.3193 -0.1105 -0.2990
    1CHOL    C215240  19.963  19.268   5.128  0.0836 -0.1593 -0.4930
    1CHOL   ROH15241  13.937  15.324   2.928 -0.3118 -0.0168  0.0614
    1CHOL    R115242  13.993  15.430   3.184  0.0143 -0.0510  0.0042
    1CHOL    R215243  13.853  15.356   3.410  0.0103  0.2467  0.1005
    1CHOL    R315244  14.101  15.300   3.506 -0.0305 -0.1592 -0.0242
    1CHOL    R415245  13.936  15.339   3.745  0.1650  0.1712  0.0589
    1CHOL    R515246  14.123  15.441   3.699  0.3147 -0.1574 -0.0633
    1CHOL    C115247  14.217  15.277   4.031  0.2170 -0.2531 -0.0822
    1CHOL    C215248  14.338  15.297   4.519 -0.0110  0.0251 -0.2356
    1CHOL   ROH15249   1.008   2.077   6.322 -0.1819  0.1758 -0.0713
    1CHOL    R115250   1.163   2.180   6.109 -0.0167  0.2718  0.0949
    1CHOL    R215251   1.079   2.171   5.846  0.3844 -0.0101 -0.0251
    1CHOL    R315252   1.125   2.439   5.856 -0.0199  0.0638 -0.1177
    1CHOL    R415253   1.119   2.375   5.570  0.5012 -0.1194 -0.0887
    1CHOL    R515254   1.278   2.480   5.676  0.1907  0.1769  0.0868
    1CHOL    C115255   1.186   2.745   5.418  0.1899 -0.1136 -0.2126
    1CHOL    C215256   1.066   2.610   4.982  0.2361 -0.1828 -0.0235
    1CHOL   ROH15257  10.423  17.520   2.725  0.0018 -0.0595  0.1545
    1CHOL    R115258  10.297  17.451   2.969  0.0176 -0.0906  0.1537
    1CHOL    R215259  10.432  17.328   3.176  0.0614  0.0004  0.1785
    1CHOL    R315260  10.336  17.537   3.320 -0.0493 -0.0293  0.1460
    1CHOL    R415261  10.313  17.306   3.500 -0.1540 -0.0582  0.0956
    1CHOL    R515262  10.153  17.444   3.445 -0.1264 -0.0601  0.0100
    1CHOL    C115263  10.153  17.490   3.824 -0.3829 -0.1182  0.0169
    1CHOL    C215264   9.924  17.391   4.119 -0.2548 -0.1417  0.0515
    1CHOL   ROH15265  20.824  20.399   3.732  0.1949 -0.2397  0.0338
    1CHOL    R115266  20.758  20.357   4.004  0.1192 -0.0639  0.0427
    1CHOL    R215267  20.872  20.502   4.209  0.1000  0.0356 -0.0157
    1CHOL    R315268  20.614  20.553   4.274  0.0928  0.1275 -0.1093
    1CHOL    R415269  20.761  20.580   4.527 -0.0200 -0.1478 -0.0126
    1CHOL    R515270  20.586  20.454   4.491 -0.0715 -0.0238 -0.1988
    1CHOL    C115271  20.452  20.674   4.773 -0.0952 -0.1677 -0.0994
    1CHOL    C215272  20.106  20.802   4.850 -0.0102  0.3029 -0.0745
    1CHOL   ROH15273  12.258   7.070   6.965 -0.2481  0.0726  0.0917
    1CHOL    R115274  12.363   6.992   6.714 -0.1831  0.0944  0.1113
    1CHOL    R215275  12.252   6.789   6.562 -0.0484 -0.0011  0.1397
    1CHOL    R315276  12.246   6.981   6.369 -0.1551 -0.0387  0.1064
    1CHOL    R415277  12.134   6.742   6.240  0.0763 -0.1526  0.1163
    1CHOL    R515278  12.300   6.864   6.167 -0.0048 -0.0281  0.1407
    1CHOL    C115279  12.061   6.895   5.872  0.0483 -0.2757  0.0715
    1CHOL    C215280  11.990   6.973   5.502 -0.2457  0.4140 -0.0920
    1CHOL   ROH15281  28.311  24.083   3.263 -0.0372  0.0432 -0.0833
    1CHOL    R115282  28.246  24.116   3.537 -0.0286  0.0753 -0.0846
    1CHOL    R215283  28.305  23.924   3.727 -0.2091  0.0040 -0.0989
    1CHOL    R315284  28.429  24.132   3.852 -0.0355 -0.1159 -0.0705
    1CHOL    R415285  28.344  23.954   4.069 -0.4320  0.0620 -0.0782
    1CHOL    R515286  28.300  24.167   4.051 -0.1431  0.1135 -0.1802
    1CHOL    C115287  28.484  24.166   4.385 -0.3994 -0.0185 -0.0391
    1CHOL    C215288  28.679  23.982   4.590  0.3598 -0.3977 -0.2908
    1CHOL   ROH15289  11.409  14.970   6.354  0.2646  0.1080 -0.0174
    1CHOL    R115290  11.558  14.857   6.142  0.1931  0.0272 -0.0246
    1CHOL    R215291  11.493  14.614   6.027  0.1387 -0.0035  0.0717
    1CHOL    R315292  11.496  14.759   5.797  0.0856 -0.0780  0.0245
    1CHOL    R415293  11.568  14.487   5.715  0.2542 -0.0625  0.1235
    1CHOL    R515294  11.680  14.669   5.673  0.1535 -0.0110  0.0777
    1CHOL    C115295  11.614  14.548   5.317  0.2711 -0.1664  0.1089
    1CHOL    C215296  11.467  14.547   4.881 -0.3489  0.1744  0.0912
    1CHOL   ROH15297   1.562  16.791   5.410  0.3093  0.1452  0.1095
    1CHOL    R115298   1.537  16.801   5.128  0.3654  0.0486  0.1009
    1CHOL    R215299   1.360  16.971   5.001  0.1978 -0.1883  0.0169
    1CHOL    R315300   1.583  17.052   4.868  0.1369  0.0402  0.0521
    1CHOL    R415301   1.376  17.032   4.661  0.1879 -0.1659  0.0205
    1CHOL    R515302   1.572  16.937   4.658  0.2859  0.0324  0.0484
    1CHOL    C115303   1.595  17.143   4.338  0.1249  0.0630  0.0557
    1CHOL    C215304   1.609  17.173   3.893  0.1810  0.0640  0.1866
    1CHOL   ROH15305  15.415   5.975   6.359 -0.0759 -0.0757  0.1115
    1CHOL    R115306  15.318   6.079   6.114 -0.1035 -0.1252  0.1013
    1CHOL    R215307  15.050   6.120   6.065 -0.0997 -0.0163  0.1704
    1CHOL    R315308  15.131   6.373   6.006  0.0023 -0.0783  0.0453
    1CHOL    R415309  14.909   6.322   5.822 -0.1130 -0.0272  0.1693
    1CHOL    R515310  15.110   6.388   5.768 -0.1044 -0.1483  0.0501
    1CHOL    C115311  14.905   6.676   5.624 -0.0251 -0.0916  0.0510
    1CHOL    C215312  14.610   6.819   5.427 -0.0323 -0.0596 -0.2644
    1CHOL   ROH15313  25.431  22.632   3.413  0.2314  0.0957 -0.0498
    1CHOL    R115314  25.552  22.474   3.614 -0.0248  0.0153  0.0424
    1CHOL    R215315  25.749  22.571   3.781  0.1861 -0.2303 -0.0626
    1CHOL    R315316  25.581  22.485   3.977  0.0604  0.2209  0.0299
    1CHOL    R415317  25.832  22.546   4.115  0.3376 -0.5493 -0.1235
    1CHOL    R515318  25.722  22.358   4.124 -0.2117 -0.2289 -0.0925
    1CHOL    C115319  25.724  22.451   4.494  0.3071 -0.3114 -0.0724
    1CHOL    C215320  25.653  22.661   4.851  0.1749 -0.1291  0.1422
    1CHOL   ROH15321  18.422  14.267   2.448  0.0153 -0.0444 -0.0762
    1CHOL    R115322  18.462  14.156   2.705 -0.0935 -0.1559 -0.1073
    1CHOL    R215323  18.561  14.302   2.917  0.2694 -0.3704 -0.1269
    1CHOL    R315324  18.336  14.214   3.042  0.1510  0.0391 -0.0489
    1CHOL    R415325  18.516  14.292   3.260  0.4253 -0.4210 -0.1078
    1CHOL    R515326  18.417  14.100   3.236  0.0162 -0.2093 -0.1383
    1CHOL    C115327  18.278  14.204   3.576  0.4025 -0.0663 -0.0236
    1CHOL    C215328  18.195  14.348   3.927  0.1385 -0.0133 -0.0468
    1CHOL   ROH15329  19.109  13.407   2.500  0.0780 -0.0891 -0.0874
    1CHOL    R115330  19.128  13.543   2.747  0.0019 -0.1850 -0.0287
    1CHOL    R215331  18.958  13.490   2.959  0.0537 -0.3974 -0.0389
    1CHOL    R315332  19.191  13.452   3.094  0.0913 -0.2943 -0.0735
    1CHOL    R415333  18.986  13.477   3.303  0.1879  0.1259 -0.0292
    1CHOL    R515334  19.171  13.593   3.287  0.2337  0.0162 -0.2837
    1CHOL    C115335  19.221  13.434   3.631  0.2980  0.5277 -0.0560
    1CHOL    C215336  19.246  13.286   4.000  0.2055  0.4541 -0.2388
    1CHOL   ROH15337  16.268  18.582   3.062 -0.2871 -0.0400  0.0037
    1CHOL    R115338  16.181  18.470   3.307 -0.1593  0.0296  0.0801
    1CHOL    R215339  16.356  18.363   3.492 -0.0753 -0.0425 -0.0411
    1CHOL    R315340  16.233  18.536   3.661  0.1394  0.0378  0.0350
    1CHOL    R415341  16.384  18.355   3.836  0.1554 -0.0420 -0.0595
    1CHOL    R515342  16.171  18.401   3.849  0.1898  0.0830  0.0839
    1CHOL    C115343  16.284  18.514   4.196  0.4937  0.0358  0.0013
    1CHOL    C215344  16.161  18.397   4.444  0.1644 -0.3843  0.0513
    1CHOL   ROH15345   2.167  19.915   5.564  0.2046  0.0330  0.1643
    1CHOL    R115346   2.190  19.891   5.283  0.1918 -0.0753  0.1724
    1CHOL    R215347   2.199  20.110   5.115 -0.0981 -0.1441  0.0659
    1CHOL    R315348   2.428  19.993   5.027  0.0306  0.0902  0.0872
    1CHOL    R415349   2.376  20.208   4.835 -0.3310 -0.1497 -0.0839
    1CHOL    R515350   2.410  19.997   4.788 -0.0607 -0.1450  0.0896
    1CHOL    C115351   2.694  20.155   4.589 -0.3458  0.0675 -0.1504
    1CHOL    C215352   2.710  20.228   4.240 -0.0787  0.1080  0.2877
    1CHOL   ROH15353   9.005  12.655   6.663 -0.0616 -0.2290  0.1069
    1CHOL    R115354   9.226  12.618   6.490 -0.0892 -0.1092  0.0465
    1CHOL    R215355   9.320  12.368   6.419 -0.0930 -0.0597 -0.1319
    1CHOL    R315356   9.286  12.463   6.166 -0.1372  0.1045 -0.0646
    1CHOL    R415357   9.489  12.253   6.141 -0.1931  0.0720 -0.2477
    1CHOL    R515358   9.506  12.460   6.072 -0.1626  0.1111 -0.1245
    1CHOL    C115359   9.556  12.275   5.742 -0.2929  0.3030 -0.2517
    1CHOL    C215360   9.764  12.356   5.394 -0.2601  0.0027  0.1032
    1CHOL   ROH15361   2.105  26.465   5.568 -0.1983  0.0628  0.0856
    1CHOL    R115362   1.948  26.603   5.376 -0.1880 -0.0687 -0.0186
    1CHOL    R215363   2.051  26.803   5.216 -0.2599  0.0471  0.0787
    1CHOL    R315364   1.952  26.649   5.015  0.0395 -0.0301 -0.0121
    1CHOL    R415365   1.984  26.915   4.896 -0.3685  0.0753  0.1111
    1CHOL    R515366   1.802  26.795   4.898 -0.1720 -0.2251  0.0157
    1CHOL    C115367   1.851  26.836   4.522 -0.1506  0.0190  0.0453
    1CHOL    C215368   1.709  27.018   4.240  0.0101 -0.0805  0.1169
    1CHOL   ROH15369  20.027  13.185   2.241 -0.0201  0.0045  0.0432
    1CHOL    R115370  20.182  13.267   2.463 -0.0162 -0.0367  0.0567
    1CHOL    R215371  20.143  13.508   2.592  0.0084 -0.0460  0.0802
    1CHOL    R315372  20.122  13.350   2.813 -0.0185 -0.0652  0.0633
    1CHOL    R415373  20.136  13.623   2.918 -0.0029 -0.0772  0.0912
    1CHOL    R515374  20.263  13.455   2.975 -0.0210 -0.0925  0.0825
    1CHOL    C115375  20.112  13.542   3.315 -0.0341 -0.1136  0.0814
    1CHOL    C215376  20.323  13.869   3.326 -0.0276 -0.0978  0.0847
    1CHOL   ROH15377  16.708  16.529   2.630  0.1786  0.0766  0.0032
    1CHOL    R115378  16.759  16.655   2.878  0.1736  0.0229  0.0323
    1CHOL    R215379  16.603  16.610   3.102  0.0233  0.1563 -0.0446
    1CHOL    R315380  16.842  16.550   3.217 -0.0878 -0.0657  0.0689
    1CHOL    R415381  16.686  16.673   3.432 -0.0534  0.1354 -0.0216
    1CHOL    R515382  16.885  16.732   3.366  0.0343 -0.0811  0.0515
    1CHOL    C115383  16.958  16.653   3.731 -0.2019 -0.0840  0.0981
    1CHOL    C215384  16.879  16.687   4.013  0.1905 -0.2327 -0.2398
    1CHOL   ROH15385   5.490   4.704   3.897  0.0129  0.1083  0.1005
    1CHOL    R115386   5.379   4.657   4.153  0.0486 -0.2310  0.0541
    1CHOL    R215387   5.471   4.459   4.321  0.3460 -0.1847 -0.0534
    1CHOL    R315388   5.496   4.664   4.498 -0.0166 -0.2525  0.0769
    1CHOL    R415389   5.537   4.422   4.659  0.2401 -0.2892 -0.0441
    1CHOL    R515390   5.394   4.582   4.699  0.0021 -0.5076 -0.0172
    1CHOL    C115391   5.599   4.594   5.021 -0.1619 -0.4135  0.0839
    1CHOL    C215392   5.614   4.216   5.261 -0.3762  0.2520 -0.0716
    1CHOL   ROH15393  19.992  11.284   5.586  0.0065 -0.0232 -0.0458
    1CHOL    R115394  19.866  11.197   5.348 -0.0124  0.0076 -0.0467
    1CHOL    R215395  19.848  11.357   5.123  0.0298  0.0109 -0.0481
    1CHOL    R315396  19.963  11.142   5.001 -0.0245 -0.0188 -0.0450
    1CHOL    R415397  19.891  11.323   4.781 -0.0563 -0.0415 -0.0539
    1CHOL    R515398  19.836  11.112   4.800 -0.0772 -0.0334 -0.0103
    1CHOL    C115399  20.024  11.101   4.469 -0.1584 -0.1009 -0.0546
    1CHOL    C215400  20.429  10.982   4.220 -0.0051 -0.1097 -0.0591
    1CHOL   ROH15401  26.391  21.137   3.539  0.2680  0.2879 -0.0668
    1CHOL    R115402  26.291  21.195   3.797  0.1736  0.2537 -0.0954
    1CHOL    R215403  26.427  21.128   4.028  0.0463  0.1410 -0.0531
    1CHOL    R315404  26.398  21.392   4.084  0.1178  0.1375  0.0063
    1CHOL    R415405  26.462  21.268   4.342 -0.3872 -0.0086  0.0632
    1CHOL    R515406  26.292  21.396   4.299 -0.2356  0.1163 -0.1683
    1CHOL    C115407  26.457  21.598   4.577 -0.5716 -0.0994  0.1875
    1CHOL    C215408  26.446  21.500   4.899  0.2116 -0.1712 -0.1839
    1CHOL   ROH15409  15.305  18.311   2.839  0.0217 -0.0032 -0.1127
    1CHOL    R115410  15.189  18.345   3.095  0.0734 -0.2670 -0.0541
    1CHOL    R215411  15.247  18.179   3.308  0.4966 -0.1821 -0.1040
    1CHOL    R315412  15.307  18.414   3.432  0.0949 -0.0816 -0.0995
    1CHOL    R415413  15.246  18.227   3.650  0.4191 -0.1917 -0.1029
    1CHOL    R515414  15.155  18.423   3.618  0.0801 -0.3462 -0.0970
    1CHOL    C115415  15.301  18.475   3.966 -0.0046 -0.1023 -0.0980
    1CHOL    C215416  15.156  18.603   4.326 -0.0207 -0.2020 -0.2083
    1CHOL   ROH15417  17.253  14.646   6.113 -0.3394  0.0058  0.0072
    1CHOL    R115418  17.309  14.758   5.859 -0.1507 -0.0296  0.0339
    1CHOL    R215419  17.443  14.619   5.662 -0.1312 -0.1072  0.1020
    1CHOL    R315420  17.225  14.686   5.513 -0.0201  0.0129 -0.0074
    1CHOL    R415421  17.421  14.587   5.318  0.0515 -0.0219  0.0823
    1CHOL    R515422  17.317  14.778   5.312  0.1307  0.0215  0.0660
    1CHOL    C115423  17.204  14.631   4.979  0.2613  0.1401 -0.0315
    1CHOL    C215424  17.205  14.639   4.609 -0.1047 -0.0395  0.1245
    1CHOL   ROH15425  13.191  11.001   3.188  0.2280  0.0418 -0.0240
    1CHOL    R115426  13.285  11.029   3.453  0.2365 -0.1144 -0.0098
    1CHOL    R215427  13.160  11.192   3.638  0.3725 -0.0499  0.0258
    1CHOL    R315428  13.155  10.965   3.787  0.1554 -0.0862 -0.0359
    1CHOL    R415429  13.216  11.179   3.978  0.4635 -0.2108  0.0046
    1CHOL    R515430  13.330  10.996   3.947  0.2408 -0.3343 -0.0819
    1CHOL    C115431  13.245  10.958   4.317  0.3129 -0.3376 -0.0656
    1CHOL    C215432  13.195  10.982   4.660 -0.1060 -0.0247  0.2584
    1CHOL   ROH15433   1.964   2.703   5.554 -0.1085  0.0265 -0.1567
    1CHOL    R115434   2.011   2.624   5.286 -0.0615 -0.0235 -0.1338
    1CHOL    R215435   2.218   2.455   5.215 -0.1019 -0.1065 -0.0537
    1CHOL    R315436   2.017   2.310   5.101 -0.1214 -0.0491 -0.0925
    1CHOL    R415437   2.257   2.241   4.946 -0.1018 -0.1551 -0.0160
    1CHOL    R515438   2.067   2.315   4.867 -0.0530 -0.0970 -0.0789
    1CHOL    C115439   2.092   1.981   4.682 -0.1201 -0.1295 -0.0295
    1CHOL    C215440   2.285   1.602   4.494  0.2425 -0.0538  0.1277
    1CHOL   ROH15441   4.797   2.230   6.388 -0.0576 -0.2374  0.1063
    1CHOL    R115442   4.953   2.421   6.250 -0.1690 -0.2841 -0.0849
    1CHOL    R215443   5.187   2.524   6.353 -0.3349  0.1073 -0.0983
    1CHOL    R315444   5.292   2.439   6.117 -0.1084 -0.1397  0.0892
    1CHOL    R415445   5.453   2.673   6.190 -0.2189 -0.0256 -0.0322
    1CHOL    R515446   5.348   2.641   6.001 -0.0460 -0.2588 -0.0894
    1CHOL    C115447   5.705   2.680   5.872  0.0606 -0.3345  0.1821
    1CHOL    C215448   5.724   3.061   5.771 -0.0416  0.2235 -0.0217
    1CHOL   ROH15449  18.734  16.412   6.138  0.0699 -0.0879  0.0992
    1CHOL    R115450  18.703  16.447   5.859  0.0000 -0.2041  0.0925
    1CHOL    R215451  18.846  16.635   5.716 -0.2890 -0.0277  0.0362
    1CHOL    R315452  18.914  16.421   5.564  0.0190  0.0362  0.0847
    1CHOL    R415453  18.855  16.633   5.370 -0.2966 -0.0944  0.0365
    1CHOL    R515454  18.769  16.433   5.374 -0.0057 -0.2213  0.0865
    1CHOL    C115455  18.926  16.430   5.027 -0.0122 -0.0747  0.0821
    1CHOL    C215456  18.940  16.639   4.731 -0.3361 -0.0885 -0.0144
    1CHOL   ROH15457   9.926  16.443   6.248  0.1953  0.2909 -0.2175
    1CHOL    R115458   9.811  16.368   6.001 -0.0162  0.4025 -0.1531
    1CHOL    R215459   9.802  16.537   5.783  0.3552  0.2826 -0.2618
    1CHOL    R315460   9.924  16.329   5.657 -0.1527 -0.0854 -0.1438
    1CHOL    R415461   9.805  16.488   5.441  0.4654  0.2270 -0.2532
    1CHOL    R515462   9.776  16.275   5.476 -0.1769  0.3138 -0.2446
    1CHOL    C115463   9.921  16.264   5.123  0.0528 -0.1517 -0.1368
    1CHOL    C215464  10.019  16.046   4.855  0.2623 -0.2869  0.3610
    1CHOL   ROH15465   9.607  11.944   3.577  0.1698  0.1730  0.1197
    1CHOL    R115466   9.525  12.102   3.797  0.0396  0.1359  0.0979
    1CHOL    R215467   9.471  11.994   4.046  0.1870  0.1324  0.1291
    1CHOL    R315468   9.651  12.179   4.130  0.0091  0.3367  0.0632
    1CHOL    R415469   9.478  12.132   4.362  0.2937 -0.0381  0.2017
    1CHOL    R515470   9.525  12.325   4.271 -0.0620  0.0787  0.2673
    1CHOL    C115471   9.652  12.387   4.625  0.1885  0.0533  0.1821
    1CHOL    C215472   9.681  12.564   4.875 -0.1583 -0.1243 -0.0312
    1CHOL   ROH15473  11.084  18.464   2.588  0.0083 -0.2086 -0.0504
    1CHOL    R115474  11.190  18.517   2.845  0.0486 -0.1698 -0.0751
    1CHOL    R215475  11.073  18.694   3.021  0.1658 -0.0232 -0.1441
    1CHOL    R315476  11.079  18.480   3.190  0.0348  0.0415 -0.0570
    1CHOL    R415477  11.090  18.715   3.366  0.0811  0.1078 -0.1477
    1CHOL    R515478  11.230  18.547   3.364  0.0143  0.0515 -0.0432
    1CHOL    C115479  11.107  18.527   3.725 -0.0913  0.2439 -0.0683
    1CHOL    C215480  11.143  18.596   4.119  0.2978  0.0358  0.0662
    1CHOL   ROH15481  17.087  18.133   3.017  0.0886  0.1802 -0.0415
    1CHOL    R115482  17.210  18.045   3.257 -0.0095  0.0534 -0.0370
    1CHOL    R215483  17.280  18.218   3.460  0.0179 -0.0369  0.0312
    1CHOL    R315484  17.131  18.049   3.612 -0.0972 -0.0148 -0.0551
    1CHOL    R415485  17.320  18.172   3.800 -0.2460  0.0238  0.0702
    1CHOL    R515486  17.287  17.958   3.770 -0.2174  0.0153  0.0817
    1CHOL    C115487  17.203  17.985   4.141 -0.5061  0.0794  0.0117
    1CHOL    C215488  17.316  18.137   4.537  0.0379  0.1572  0.0891
    1CHOL   ROH15489  16.280  17.783   6.112 -0.1037 -0.1638 -0.1765
    1CHOL    R115490  16.401  17.757   5.857  0.1230  0.0963 -0.0968
    1CHOL    R215491  16.268  17.651   5.640  0.4567 -0.0860 -0.2134
    1CHOL    R315492  16.342  17.884   5.521  0.1439  0.0663 -0.1114
    1CHOL    R415493  16.298  17.698   5.299  0.5674  0.0515 -0.1841
    1CHOL    R515494  16.478  17.816   5.336  0.3557  0.3347 -0.0544
    1CHOL    C115495  16.385  17.945   4.989  0.3368  0.2750 -0.0716
    1CHOL    C215496  16.311  17.965   4.734  0.4496  0.1858  0.0806
    1CHOL   ROH15497  16.127   3.973   3.294 -0.2178  0.1641  0.0155
    1CHOL    R115498  16.183   4.081   3.550 -0.4025  0.0613  0.0995
    1CHOL    R215499  16.087   3.969   3.783 -0.1672 -0.3165  0.0154
    1CHOL    R315500  16.349   3.969   3.853 -0.1604  0.1289 -0.0080
    1CHOL    R415501  16.205   4.026   4.102 -0.2594 -0.4828  0.0794
    1CHOL    R515502  16.367   4.144   4.016 -0.5054 -0.0403  0.2148
    1CHOL    C115503  16.521   4.060   4.354 -0.3047 -0.1614  0.0948
    1CHOL    C215504  16.758   4.046   4.717 -0.0589  0.1800 -0.0704
    1DPPC   NC315505  17.071  19.013   2.558 -0.1826 -0.1072  0.0859
    1DPPC   PO415506  17.380  18.710   2.617 -0.0165  0.1335 -0.0750
    1DPPC   GL115507  17.557  18.508   3.009  0.0757 -0.0726  0.0192
    1DPPC   GL215508  17.596  18.253   3.030 -0.0329 -0.2998 -0.0303
    1DPPC   C1A15509  17.773  18.576   3.438  0.0097 -0.0983 -0.0532
    1DPPC   C2A15510  17.733  18.505   3.904  0.3196  0.2463 -0.1124
    1DPPC   C3A15511  17.672  18.529   4.425  0.1992  0.2608 -0.1028
    1DPPC   C4A15512  17.623  18.539   4.851  0.1651 -0.1120 -0.0024
    1DPPC   C1B15513  17.730  18.053   3.344 -0.0552  0.2067 -0.0260
    1DPPC   C2B15514  17.776  18.033   3.743  0.2203 -0.1374  0.0378
    1DPPC   C3B15515  17.731  18.044   4.184  0.0552  0.1002 -0.0750
    1DPPC   C4B15516  17.708  17.888   4.733  0.1278  0.0987  0.1096
    1DPPC   NC315517  14.016  11.173   2.065  0.1520 -0.0494  0.0373
    1DPPC   PO415518  14.298  11.169   2.446  0.2213 -0.1572  0.0601
    1DPPC   GL115519  14.254  10.759   2.763  0.1242  0.0054 -0.1378
    1DPPC   GL215520  14.503  10.534   2.900  0.1247 -0.0486  0.0895
    1DPPC   C1A15521  13.984  10.616   3.075  0.1880 -0.3548  0.1517
    1DPPC   C2A15522  14.035  10.579   3.566 -0.2152 -0.0999  0.3952
    1DPPC   C3A15523  14.138  10.553   4.009  0.1718 -0.0087  0.0289
    1DPPC   C4A15524  14.235  10.608   4.471  0.0799 -0.1305  0.0814
    1DPPC   C1B15525  14.444  10.514   3.277 -0.1031  0.3422  0.0336
    1DPPC   C2B15526  14.587  10.514   3.692  0.1107 -0.1341 -0.2273
    1DPPC   C3B15527  14.652  10.559   4.100  0.2667  0.0911  0.2686
    1DPPC   C4B15528  14.741  10.319   4.411 -0.1646 -0.2178 -0.0718
    1DPPC   NC315529   1.057  18.421   2.328 -0.0105 -0.1031  0.0583
    1DPPC   PO415530   1.303  18.281   2.604 -0.1261 -0.0862  0.1367
    1DPPC   GL115531   1.204  18.028   2.875  0.1727 -0.0555  0.1800
    1DPPC   GL215532   1.468  17.845   2.793 -0.1121 -0.0101  0.0333
    1DPPC   C1A15533   1.093  17.906   3.391 -0.0603 -0.2107 -0.1503
    1DPPC   C2A15534   1.283  18.178   3.720 -0.1809 -0.0902  0.2264
    1DPPC   C3A15535   1.505  18.407   3.986 -0.2366 -0.3308 -0.3958
    1DPPC   C4A15536   1.595  18.501   4.377 -0.2188  0.1057 -0.1339
    1DPPC   C1B15537   1.581  17.911   3.255  0.1274  0.1549 -0.3268
    1DPPC   C2B15538   1.718  17.956   3.711  0.2332 -0.2870  0.4115
    1DPPC   C3B15539   1.831  17.635   3.968 -0.2143  0.0906 -0.0716
    1DPPC   C4B15540   2.237  17.632   4.254 -0.2791 -0.1544  0.2364
    1DPPC   NC315541  16.608  18.771   1.978  0.1303 -0.0206  0.2231
    1DPPC   PO415542  16.620  18.895   2.424 -0.0685 -0.1123 -0.0930
    1DPPC   GL115543  16.651  18.864   2.859 -0.2748  0.2563 -0.1183
    1DPPC   GL215544  16.563  19.083   3.086 -0.0859  0.0925  0.0663
    1DPPC   C1A15545  16.780  18.535   3.149  0.1599  0.1726 -0.0743
    1DPPC   C2A15546  16.845  18.473   3.545  0.0226  0.0215  0.1188
    1DPPC   C3A15547  16.844  18.282   3.924  0.0735  0.1077 -0.1140
    1DPPC   C4A15548  16.750  18.251   4.327 -0.0710 -0.0813 -0.0458
    1DPPC   C1B15549  16.565  18.860   3.478 -0.2443 -0.0988  0.2421
    1DPPC   C2B15550  16.619  18.763   3.915 -0.0274 -0.3625 -0.3314
    1DPPC   C3B15551  16.713  18.765   4.297 -0.2901 -0.2655 -0.1330
    1DPPC   C4B15552  16.499  18.771   4.610 -0.1699 -0.0155  0.3077
    1DPPC   NC315553  10.077  12.619   2.867 -0.1498  0.3232 -0.2407
    1DPPC   PO415554  10.226  12.378   3.238  0.0111 -0.0631 -0.1106
    1DPPC   GL115555  10.059  12.147   3.544 -0.1643  0.1876  0.2672
    1DPPC   GL215556  10.430  11.939   3.722 -0.0075 -0.2351  0.3003
    1DPPC   C1A15557  10.055  12.254   3.927 -0.0023 -0.2646 -0.0104
    1DPPC   C2A15558  10.046  12.401   4.302 -0.0744  0.0836  0.0458
    1DPPC   C3A15559  10.170  12.475   4.737 -0.1687  0.1512  0.0073
    1DPPC   C4A15560  10.352  12.407   5.240  0.0549  0.4067  0.0841
    1DPPC   C1B15561  10.537  12.238   3.944  0.0514 -0.0532 -0.2571
    1DPPC   C2B15562  10.490  12.168   4.446 -0.5316 -0.0120 -0.0034
    1DPPC   C3B15563  10.505  12.160   4.819  0.1007 -0.1113 -0.0803
    1DPPC   C4B15564  10.713  11.908   5.155 -0.0463 -0.1091  0.0276
    1DPPC   NC315565  20.427  19.803   2.535 -0.4209 -0.0964  0.1714
    1DPPC   PO415566  20.446  19.370   2.689 -0.2829 -0.1176 -0.1174
    1DPPC   GL115567  20.443  19.241   3.178  0.0593  0.1120  0.3094
    1DPPC   GL215568  20.461  19.594   3.398 -0.0260  0.1996 -0.0902
    1DPPC   C1A15569  20.465  19.214   3.669  0.0285  0.1647  0.0358
    1DPPC   C2A15570  20.476  19.067   4.108  0.1938 -0.1600 -0.0136
    1DPPC   C3A15571  20.360  19.037   4.540  0.0344  0.2276 -0.1194
    1DPPC   C4A15572  20.324  18.877   4.917 -0.3016 -0.0371  0.0235
    1DPPC   C1B15573  20.514  19.601   3.925  0.1057 -0.1514 -0.3219
    1DPPC   C2B15574  20.522  19.550   4.342  0.0129  0.1872 -0.1359
    1DPPC   C3B15575  20.778  19.566   4.659  0.1545  0.3583 -0.3920
    1DPPC   C4B15576  21.093  19.659   5.012  0.1069 -0.0133 -0.2025
    1DPPC   NC315577  14.147  10.319   2.532 -0.3001  0.0292 -0.2821
    1DPPC   PO415578  14.562  10.196   2.348  0.1661  0.0213  0.0514
    1DPPC   GL115579  14.503  10.000   2.743  0.0265 -0.1307  0.1635
    1DPPC   GL215580  14.810   9.949   2.753  0.2586 -0.3359  0.1172
    1DPPC   C1A15581  14.538   9.988   3.167  0.1147  0.1233  0.3893
    1DPPC   C2A15582  14.585   9.925   3.476 -0.0226 -0.0594  0.1970
    1DPPC   C3A15583  14.500   9.797   3.855 -0.0530 -0.0097 -0.2165
    1DPPC   C4A15584  14.317  10.074   4.185  0.1413  0.1558  0.1719
    1DPPC   C1B15585  14.953  10.291   3.006 -0.2487 -0.1488 -0.0260
    1DPPC   C2B15586  15.038  10.245   3.522 -0.0902 -0.1321  0.1128
    1DPPC   C3B15587  14.926  10.097   3.903  0.1029  0.2737 -0.1078
    1DPPC   C4B15588  14.791   9.845   4.305 -0.0736  0.1135 -0.1959
    1DPPC   NC315589  18.642  21.455   2.412 -0.0144 -0.3090 -0.0229
    1DPPC   PO415590  18.690  21.777   2.724 -0.1180 -0.0296 -0.0195
    1DPPC   GL115591  18.593  21.643   3.260 -0.0076 -0.1866  0.0097
    1DPPC   GL215592  18.768  21.800   3.444 -0.0958 -0.2931 -0.0052
    1DPPC   C1A15593  18.324  21.605   3.517 -0.0478  0.1781  0.2303
    1DPPC   C2A15594  18.297  21.649   4.026 -0.1091 -0.1229  0.1170
    1DPPC   C3A15595  18.170  21.648   4.495 -0.0151 -0.0126 -0.0651
    1DPPC   C4A15596  18.088  21.930   4.819  0.0120 -0.1794 -0.0983
    1DPPC   C1B15597  18.762  21.864   3.925 -0.0402  0.0930 -0.0869
    1DPPC   C2B15598  18.605  21.913   4.310  0.1182 -0.0827 -0.1090
    1DPPC   C3B15599  18.549  21.933   4.617 -0.1281 -0.0076  0.1383
    1DPPC   C4B15600  18.499  21.706   4.916 -0.0998 -0.1078 -0.3314
    1DPPC   NC315601  22.023  17.199   2.026 -0.0525  0.2483 -0.0669
    1DPPC   PO415602  22.399  17.188   2.126  0.1295  0.2786 -0.0941
    1DPPC   GL115603  22.448  17.229   2.654  0.1101  0.0929  0.1152
    1DPPC   GL215604  22.302  17.540   2.780  0.0246 -0.2535  0.0078
    1DPPC   C1A15605  22.658  17.209   3.086 -0.2421 -0.0270 -0.1086
    1DPPC   C2A15606  22.942  16.885   3.304  0.2433 -0.2566 -0.0788
    1DPPC   C3A15607  23.115  16.704   3.597 -0.1022  0.3259  0.1925
    1DPPC   C4A15608  23.007  16.710   3.986  0.2913 -0.2717 -0.2807
    1DPPC   C1B15609  22.429  17.615   3.259  0.0388 -0.1263  0.1491
    1DPPC   C2B15610  22.665  17.560   3.604 -0.5484 -0.2493 -0.1022
    1DPPC   C3B15611  22.893  17.532   3.938  0.0781 -0.0483  0.1711
    1DPPC   C4B15612  23.199  17.463   4.199  0.2537 -0.0903 -0.0665
    1DPPC   NC315613  14.084  14.615   2.352 -0.0124  0.1515  0.0160
    1DPPC   PO415614  13.876  14.864   2.567 -0.3327  0.1650  0.0226
    1DPPC   GL115615  13.849  14.754   2.890  0.1925  0.0275  0.0565
    1DPPC   GL215616  13.567  14.944   2.974 -0.0419  0.1508  0.0914
    1DPPC   C1A15617  13.898  14.822   3.341 -0.0743  0.1172 -0.1349
    1DPPC   C2A15618  13.907  14.820   3.720  0.0237 -0.3572  0.0077
    1DPPC   C3A15619  13.906  14.697   4.122  0.2625 -0.1797 -0.2646
    1DPPC   C4A15620  13.916  14.903   4.554 -0.4740  0.1696 -0.1243
    1DPPC   C1B15621  13.401  14.906   3.451  0.0241 -0.2626 -0.0666
    1DPPC   C2B15622  13.476  14.898   3.893 -0.1748 -0.1898 -0.3331
    1DPPC   C3B15623  13.446  14.676   4.313  0.4159 -0.0747 -0.1592
    1DPPC   C4B15624  13.379  14.860   4.630 -0.1072  0.1009 -0.1305
    1DPPC   NC315625  22.616  11.607   2.654  0.0948 -0.0025 -0.3167
    1DPPC   PO415626  22.466  11.904   2.358  0.0860  0.1815 -0.1752
    1DPPC   GL115627  22.285  11.994   2.791  0.0333 -0.1313 -0.0544
    1DPPC   GL215628  22.089  11.737   2.677 -0.2042 -0.1384  0.1080
    1DPPC   C1A15629  22.205  12.243   3.080 -0.0558  0.1511 -0.0499
    1DPPC   C2A15630  22.302  12.177   3.514  0.0690  0.0010  0.0899
    1DPPC   C3A15631  22.266  11.843   3.879 -0.1769  0.0541 -0.3078
    1DPPC   C4A15632  22.348  11.624   4.300  0.1219  0.2271 -0.0004
    1DPPC   C1B15633  21.933  11.807   3.195  0.1879  0.4073 -0.1180
    1DPPC   C2B15634  21.856  11.729   3.512  0.1279 -0.1497  0.1460
    1DPPC   C3B15635  21.869  11.539   3.893 -0.3399  0.1298  0.1873
    1DPPC   C4B15636  21.814  11.580   4.248  0.1959 -0.1149  0.2307
    1DPPC   NC315637  11.576  20.358   1.860 -0.1668 -0.0023 -0.1828
    1DPPC   PO415638  11.823  20.364   2.301 -0.1876  0.2139 -0.2097
    1DPPC   GL115639  11.671  20.426   2.708  0.0773  0.0323  0.0519
    1DPPC   GL215640  11.492  20.228   2.852 -0.1759  0.0063  0.0000
    1DPPC   C1A15641  11.770  20.618   3.003  0.0853  0.0893 -0.2126
    1DPPC   C2A15642  11.579  20.505   3.407  0.1450  0.2325  0.1023
    1DPPC   C3A15643  11.329  20.734   3.812  0.0766  0.2369  0.1522
    1DPPC   C4A15644  11.165  21.217   3.901 -0.1387 -0.1312 -0.0740
    1DPPC   C1B15645  11.411  20.106   3.230 -0.1535  0.0324  0.0285
    1DPPC   C2B15646  11.637  19.984   3.538  0.1909  0.0701  0.2172
    1DPPC   C3B15647  11.629  19.840   3.821  0.1272 -0.3978  0.1525
    1DPPC   C4B15648  11.287  19.744   4.125 -0.1387 -0.0217 -0.0247
    1DPPC   NC315649  13.665   9.428   2.685  0.1022  0.3662 -0.2593
    1DPPC   PO415650  14.100   9.656   2.662  0.2106 -0.2979  0.3389
    1DPPC   GL115651  14.251   9.581   3.044 -0.0000  0.2726 -0.1184
    1DPPC   GL215652  14.384   9.284   3.045  0.1283  0.0954 -0.0524
    1DPPC   C1A15653  14.223   9.584   3.494 -0.1217 -0.1317  0.0392
    1DPPC   C2A15654  14.134   9.456   3.870  0.0781  0.1254 -0.0668
    1DPPC   C3A15655  14.202   9.604   4.309  0.2470  0.1354 -0.2107
    1DPPC   C4A15656  13.936   9.873   4.574  0.5001  0.2161 -0.0255
    1DPPC   C1B15657  14.024   9.121   3.293 -0.1876  0.1327  0.0577
    1DPPC   C2B15658  13.935   9.046   3.711  0.1184  0.0268  0.3452
    1DPPC   C3B15659  13.882   9.103   4.101  0.0023  0.0565  0.0544
    1DPPC   C4B15660  13.811   8.918   4.481 -0.1655 -0.0684  0.2476
    1DPPC   NC315661  12.412  12.641   2.666  0.1477  0.3400 -0.1807
    1DPPC   PO415662  12.877  12.632   2.751 -0.0771 -0.0621  0.0641
    1DPPC   GL115663  12.757  12.537   3.150 -0.2500  0.1506 -0.2957
    1DPPC   GL215664  12.389  12.445   3.240  0.1440 -0.2522 -0.3503
    1DPPC   C1A15665  12.829  12.539   3.469  0.1965  0.1780  0.0615
    1DPPC   C2A15666  12.812  12.554   3.942  0.0570 -0.1941 -0.1080
    1DPPC   C3A15667  12.862  12.529   4.365 -0.0178 -0.0816 -0.1578
    1DPPC   C4A15668  12.944  12.785   4.648 -0.0883  0.3488  0.0160
    1DPPC   C1B15669  12.347  12.463   3.609  0.0932 -0.0545 -0.2080
    1DPPC   C2B15670  12.274  12.397   3.994 -0.2519  0.1244 -0.0213
    1DPPC   C3B15671  12.298  12.572   4.378  0.0077  0.2226 -0.0877
    1DPPC   C4B15672  12.504  12.559   4.791  0.1711  0.0923 -0.1683
    1DPPC   NC315673  18.826  17.907   2.292  0.0039 -0.0632  0.1215
    1DPPC   PO415674  18.885  18.368   2.477 -0.0121  0.0622 -0.2146
    1DPPC   GL115675  19.072  18.171   2.724  0.0204  0.1294 -0.0212
    1DPPC   GL215676  19.327  18.144   2.748  0.1203  0.0037  0.0451
    1DPPC   C1A15677  19.034  18.329   3.169 -0.2006 -0.1945  0.1310
    1DPPC   C2A15678  19.128  18.248   3.625  0.0273  0.0336  0.3615
    1DPPC   C3A15679  19.104  18.165   4.040 -0.1184  0.1956 -0.0350
    1DPPC   C4A15680  18.979  18.296   4.516  0.0124 -0.3029  0.1525
    1DPPC   C1B15681  19.474  18.042   3.152 -0.1337  0.2873  0.0737
    1DPPC   C2B15682  19.565  17.982   3.503 -0.0342 -0.0900 -0.2442
    1DPPC   C3B15683  19.603  17.935   3.892 -0.1679 -0.3573 -0.0200
    1DPPC   C4B15684  19.463  17.931   4.392 -0.1642  0.0526  0.0362
    1DPPC   NC315685  18.917  20.123   2.180  0.0554  0.0831  0.1877
    1DPPC   PO415686  18.998  20.004   2.565  0.0988 -0.0991  0.1144
    1DPPC   GL115687  19.124  19.702   2.861  0.0286 -0.1070 -0.0865
    1DPPC   GL215688  18.982  19.799   3.102  0.1363  0.0652 -0.1620
    1DPPC   C1A15689  19.206  19.401   3.275  0.0929  0.0994  0.1220
    1DPPC   C2A15690  19.212  19.318   3.719  0.1806  0.1269 -0.0106
    1DPPC   C3A15691  19.060  19.266   4.151  0.0491 -0.0246  0.3860
    1DPPC   C4A15692  18.917  19.301   4.558  0.0626  0.0426 -0.0257
    1DPPC   C1B15693  18.950  19.790   3.499  0.0802  0.1902 -0.1954
    1DPPC   C2B15694  19.013  19.796   3.920  0.1858  0.2524 -0.0234
    1DPPC   C3B15695  19.072  19.816   4.316  0.0438 -0.2452  0.3165
    1DPPC   C4B15696  19.167  19.700   4.773  0.1412  0.2200 -0.4943
    1DPPC   NC315697   8.926  10.036   3.047 -0.1541 -0.4087 -0.0168
    1DPPC   PO415698   8.908   9.673   3.384  0.2549 -0.0786  0.0890
    1DPPC   GL115699   8.713   9.633   3.783  0.0879 -0.0421  0.1468
    1DPPC   GL215700   8.576   9.894   3.891  0.0619  0.1276 -0.0729
    1DPPC   C1A15701   8.836   9.510   4.162 -0.0946  0.1787  0.1129
    1DPPC   C2A15702   8.852   9.598   4.680 -0.2521 -0.1071  0.1185
    1DPPC   C3A15703   8.983   9.692   5.183  0.4425 -0.2453 -0.1113
    1DPPC   C4A15704   9.014  10.024   5.508  0.2790  0.1336  0.1632
    1DPPC   C1B15705   8.510   9.926   4.290 -0.0348  0.0335 -0.1222
    1DPPC   C2B15706   8.400   9.963   4.681  0.0139  0.2353  0.1012
    1DPPC   C3B15707   8.138  10.190   5.065 -0.2257  0.0419  0.0326
    1DPPC   C4B15708   8.338  10.295   5.444  0.2518  0.2744  0.0657
    1DPPC   NC315709  21.939  18.850   2.734 -0.3518 -0.1942 -0.0293
    1DPPC   PO415710  21.851  19.269   2.827 -0.1073  0.0591 -0.1093
    1DPPC   GL115711  22.027  19.101   3.200 -0.0829  0.1879 -0.1025
    1DPPC   GL215712  21.849  18.895   3.330  0.0052  0.0800  0.0525
    1DPPC   C1A15713  22.312  18.967   3.577  0.1258  0.0397 -0.2104
    1DPPC   C2A15714  22.353  18.988   4.011  0.2097  0.1930 -0.1016
    1DPPC   C3A15715  22.412  18.826   4.364 -0.0417  0.0122  0.1975
    1DPPC   C4A15716  22.269  18.884   4.628 -0.2359 -0.2265 -0.5291
    1DPPC   C1B15717  22.015  18.668   3.830  0.1103 -0.2286 -0.2494
    1DPPC   C2B15718  21.951  18.559   4.218 -0.0618  0.2653  0.4174
    1DPPC   C3B15719  22.067  18.307   4.615 -0.3094 -0.2461  0.0618
    1DPPC   C4B15720  22.203  18.135   4.885 -0.2546 -0.1680  0.3240
    1DPPC   NC315721  11.745  12.305   2.201 -0.0141  0.0619  0.3631
    1DPPC   PO415722  11.662  12.292   2.661  0.0070  0.0829 -0.1247
    1DPPC   GL115723  11.623  12.315   3.136  0.0741  0.1998  0.2448
    1DPPC   GL215724  11.830  12.224   3.386  0.0570  0.0925  0.0767
    1DPPC   C1A15725  11.368  12.233   3.573  0.1681 -0.1803 -0.0646
    1DPPC   C2A15726  11.402  12.170   4.038  0.1823 -0.1019  0.1803
    1DPPC   C3A15727  11.311  12.157   4.520 -0.2798 -0.0416 -0.4014
    1DPPC   C4A15728  11.229  12.166   4.907  0.1709  0.1502  0.1607
    1DPPC   C1B15729  11.771  12.460   3.810 -0.2369 -0.0721 -0.2381
    1DPPC   C2B15730  11.833  12.461   4.308  0.0369 -0.0905 -0.1793
    1DPPC   C3B15731  11.742  12.508   4.647  0.2040  0.0174  0.1708
    1DPPC   C4B15732  11.688  12.515   5.038  0.1146 -0.0559 -0.0260
    1DPPC   NC315733  19.850   6.604   2.855  0.2350 -0.0601 -0.0550
    1DPPC   PO415734  19.658   6.176   3.144 -0.0495  0.3055  0.1236
    1DPPC   GL115735  19.806   6.492   3.396  0.0042 -0.1636  0.0188
    1DPPC   GL215736  20.136   6.582   3.360  0.0062  0.1168 -0.0088
    1DPPC   C1A15737  19.732   6.756   3.784  0.0471  0.4145 -0.0859
    1DPPC   C2A15738  19.686   7.057   4.056  0.2733  0.3004  0.0336
    1DPPC   C3A15739  19.962   7.324   4.192 -0.0427 -0.0135  0.2458
    1DPPC   C4A15740  19.959   7.671   4.465  0.1644  0.0614 -0.2195
    1DPPC   C1B15741  20.181   6.570   3.869 -0.0564 -0.1001 -0.0655
    1DPPC   C2B15742  19.998   6.348   4.061  0.1478 -0.1894 -0.1005
    1DPPC   C3B15743  19.900   6.495   4.480  0.1021 -0.1634 -0.0000
    1DPPC   C4B15744  19.595   6.542   4.866  0.2517 -0.1015  0.1638
    1DPPC   NC315745   3.696  22.400   2.293 -0.1108  0.0806 -0.2475
    1DPPC   PO415746   3.997  22.023   2.199  0.1245  0.0553  0.1860
    1DPPC   GL115747   4.175  21.738   2.576  0.0747 -0.0788  0.0871
    1DPPC   GL215748   4.374  21.511   2.478 -0.2720  0.1424 -0.1138
    1DPPC   C1A15749   4.036  21.813   3.041 -0.1245 -0.1286 -0.1357
    1DPPC   C2A15750   4.023  21.807   3.438 -0.3549  0.0782 -0.1457
    1DPPC   C3A15751   4.011  22.193   3.673  0.2893 -0.2395 -0.1364
    1DPPC   C4A15752   3.876  22.213   4.116 -0.0128  0.1433 -0.0457
    1DPPC   C1B15753   4.202  21.332   2.987  0.4655  0.0377  0.0632
    1DPPC   C2B15754   3.905  21.318   3.330 -0.1804 -0.1768 -0.1893
    1DPPC   C3B15755   3.825  21.422   3.717  0.2932  0.0184  0.1299
    1DPPC   C4B15756   3.933  21.686   4.075 -0.1534  0.1131  0.0092
    1DPPC   NC315757  23.948  18.609   2.713 -0.0773  0.1624 -0.1142
    1DPPC   PO415758  23.787  18.987   2.777  0.2885  0.0768  0.1732
    1DPPC   GL115759  23.956  19.089   3.204 -0.0144  0.2795  0.1248
    1DPPC   GL215760  24.172  19.358   3.271 -0.2235  0.0596 -0.0695
    1DPPC   C1A15761  24.030  19.073   3.676  0.1130 -0.0287 -0.1332
    1DPPC   C2A15762  23.922  19.210   4.107 -0.0179 -0.0472 -0.3291
    1DPPC   C3A15763  23.993  19.394   4.566  0.1808  0.0422  0.1782
    1DPPC   C4A15764  24.081  19.303   4.926  0.1553  0.2511  0.4916
    1DPPC   C1B15765  24.503  19.115   3.477  0.1059  0.0248  0.0984
    1DPPC   C2B15766  24.526  19.163   3.929 -0.1190  0.1529 -0.1107
    1DPPC   C3B15767  24.379  19.475   4.180 -0.0461 -0.1229 -0.2536
    1DPPC   C4B15768  24.506  19.633   4.594  0.1271 -0.2071 -0.2240
    1DPPC   NC315769   9.953  17.237   2.355 -0.1552 -0.1951  0.1763
    1DPPC   PO415770   9.497  17.351   2.440 -0.0073  0.3606  0.3600
    1DPPC   GL115771   9.444  17.203   2.798 -0.1752 -0.1559  0.3240
    1DPPC   GL215772   9.487  16.922   2.970  0.5661 -0.0673 -0.0395
    1DPPC   C1A15773   9.216  17.332   3.211 -0.1840  0.2071 -0.1168
    1DPPC   C2A15774   8.955  17.265   3.499 -0.1689 -0.3409  0.1637
    1DPPC   C3A15775   8.979  17.174   3.929  0.2102  0.1733  0.0712
    1DPPC   C4A15776   8.608  17.144   4.197 -0.3963  0.0312 -0.0240
    1DPPC   C1B15777   9.349  16.864   3.512 -0.0970  0.2004  0.1779
    1DPPC   C2B15778   9.280  16.740   3.924  0.2933 -0.0872 -0.4262
    1DPPC   C3B15779   9.035  16.832   4.366  0.1898 -0.2882  0.0652
    1DPPC   C4B15780   9.050  16.510   4.670 -0.2172  0.1622  0.1021
    1DPPC   NC315781  17.018  14.518   1.912  0.3346  0.3231 -0.0867
    1DPPC   PO415782  16.663  14.276   1.796  0.2609  0.1026  0.0720
    1DPPC   GL115783  16.602  14.297   2.242 -0.1718  0.1625 -0.2465
    1DPPC   GL215784  16.715  14.565   2.398  0.1814  0.2682 -0.2900
    1DPPC   C1A15785  16.509  14.302   2.751 -0.0134 -0.0773 -0.4143
    1DPPC   C2A15786  16.532  14.378   3.244 -0.2057  0.1649 -0.1361
    1DPPC   C3A15787  16.553  14.421   3.699 -0.0103  0.0081 -0.1009
    1DPPC   C4A15788  16.718  14.303   4.114  0.0947  0.1739 -0.0942
    1DPPC   C1B15789  16.782  14.716   2.754 -0.0209  0.0251  0.0204
    1DPPC   C2B15790  16.830  14.795   3.174 -0.0470 -0.0646  0.1715
    1DPPC   C3B15791  16.986  14.786   3.598 -0.1494 -0.0773 -0.0295
    1DPPC   C4B15792  17.035  14.733   4.070  0.1300 -0.0557 -0.0963
    1DPPC   NC315793  15.768  19.083   2.378  0.0833 -0.0119 -0.2185
    1DPPC   PO415794  15.789  19.525   2.520  0.3610 -0.3041 -0.0315
    1DPPC   GL115795  15.618  19.277   2.822  0.2707 -0.0331  0.1311
    1DPPC   GL215796  15.314  19.122   2.734  0.0191 -0.0313  0.0381
    1DPPC   C1A15797  15.674  19.274   3.282 -0.0030  0.0409 -0.1025
    1DPPC   C2A15798  15.725  19.211   3.694 -0.1316 -0.1547 -0.2277
    1DPPC   C3A15799  15.747  19.241   4.170 -0.0916  0.3816 -0.0120
    1DPPC   C4A15800  15.586  19.209   4.590 -0.3562  0.0492 -0.1071
    1DPPC   C1B15801  15.248  19.079   3.083  0.1165 -0.0212  0.0499
    1DPPC   C2B15802  15.254  18.940   3.499  0.2236  0.0415  0.1412
    1DPPC   C3B15803  15.222  18.939   3.782 -0.1456 -0.4106  0.0859
    1DPPC   C4B15804  15.350  19.001   4.089 -0.2539  0.0362  0.2027
    1DPPC   NC315805  11.685  11.020   2.800  0.1087 -0.0610 -0.0444
    1DPPC   PO415806  12.112  10.751   2.836  0.3418  0.1446  0.0207
    1DPPC   GL115807  12.337  11.004   3.197 -0.0997  0.2802 -0.1584
    1DPPC   GL215808  12.571  11.226   3.139  0.1023 -0.0102 -0.1596
    1DPPC   C1A15809  12.274  11.270   3.517  0.1998 -0.1569 -0.1334
    1DPPC   C2A15810  12.333  11.468   3.911  0.1300  0.1453 -0.1729
    1DPPC   C3A15811  12.443  11.511   4.349 -0.0157  0.0105  0.2879
    1DPPC   C4A15812  12.636  11.633   4.632  0.1385 -0.0122 -0.0907
    1DPPC   C1B15813  12.768  11.466   3.497  0.2195 -0.0646  0.4408
    1DPPC   C2B15814  12.848  11.671   3.849  0.3425 -0.2477  0.0020
    1DPPC   C3B15815  12.915  11.542   4.224  0.2827  0.2235 -0.1796
    1DPPC   C4B15816  13.170  11.436   4.572  0.0024  0.0183  0.2188
    1DPPC   NC315817  13.490  18.852   1.699  0.3027 -0.0959 -0.3309
    1DPPC   PO415818  13.620  18.915   2.150  0.0444 -0.1485 -0.0506
    1DPPC   GL115819  13.577  18.747   2.538  0.0188 -0.0871 -0.0539
    1DPPC   GL215820  13.200  18.691   2.648 -0.1643  0.1129  0.1706
    1DPPC   C1A15821  13.431  19.015   2.962  0.2198 -0.0226 -0.4032
    1DPPC   C2A15822  13.338  18.885   3.386  0.3585  0.1498  0.0076
    1DPPC   C3A15823  13.365  18.794   3.818  0.1731  0.1332  0.1673
    1DPPC   C4A15824  13.464  19.113   4.076  0.1674  0.2816  0.0267
    1DPPC   C1B15825  13.062  18.597   3.047 -0.2669  0.3254 -0.0500
    1DPPC   C2B15826  13.079  18.469   3.462  0.2175 -0.0412  0.2946
    1DPPC   C3B15827  13.196  18.244   3.889 -0.3323 -0.0032 -0.1908
    1DPPC   C4B15828  13.404  18.044   4.149 -0.0347  0.2385 -0.0625
    1DPPC   NC315829  22.805  14.882   1.693 -0.1821 -0.0379  0.2419
    1DPPC   PO415830  22.391  14.767   1.799  0.3450 -0.3516  0.1386
    1DPPC   GL115831  22.577  15.027   2.127  0.2217 -0.1916 -0.2496
    1DPPC   GL215832  22.392  15.162   2.348  0.1663  0.0896  0.0230
    1DPPC   C1A15833  22.861  14.972   2.490 -0.0895 -0.0318 -0.2725
    1DPPC   C2A15834  22.702  14.866   2.984 -0.1887  0.3717  0.4680
    1DPPC   C3A15835  22.381  14.677   3.212 -0.0307  0.0632 -0.1493
    1DPPC   C4A15836  22.107  14.442   3.502  0.0282  0.2553 -0.1023
    1DPPC   C1B15837  22.345  15.305   2.855 -0.0594  0.0087 -0.0372
    1DPPC   C2B15838  22.289  15.313   3.247  0.1200 -0.0955 -0.0547
    1DPPC   C3B15839  22.387  15.499   3.668  0.2847  0.1177  0.1650
    1DPPC   C4B15840  22.737  15.599   3.888 -0.1876 -0.0368  0.0347
    1DPPC   NC315841  14.950  20.233   2.078  0.0437  0.1917 -0.1812
    1DPPC   PO415842  15.065  20.041   2.394  0.0393 -0.1426  0.2218
    1DPPC   GL115843  15.170  20.012   2.797  0.0353  0.0383 -0.4556
    1DPPC   GL215844  15.282  19.688   2.785  0.0063  0.1897  0.2623
    1DPPC   C1A15845  15.164  20.084   3.212  0.2268  0.0363  0.2789
    1DPPC   C2A15846  15.203  20.000   3.640 -0.0096  0.1971 -0.4163
    1DPPC   C3A15847  15.251  20.069   4.077 -0.0491 -0.1104 -0.1531
    1DPPC   C4A15848  15.152  20.179   4.449  0.2938  0.1370  0.0454
    1DPPC   C1B15849  15.225  19.558   3.112 -0.1183 -0.0430 -0.2925
    1DPPC   C2B15850  15.320  19.490   3.512 -0.0949 -0.0826  0.1604
    1DPPC   C3B15851  15.358  19.513   3.966 -0.1726  0.0791  0.1664
    1DPPC   C4B15852  15.169  19.413   4.394 -0.0325  0.2058  0.1594
    1DPPC   NC315853  27.460   8.744   2.583  0.0507 -0.1437 -0.2061
    1DPPC   PO415854  27.819   8.527   2.613  0.0012  0.0932 -0.0865
    1DPPC   GL115855  27.623   8.470   3.033 -0.1997  0.0004  0.0059
    1DPPC   GL215856  27.263   8.515   3.241 -0.1642 -0.0290 -0.0460
    1DPPC   C1A15857  27.758   8.270   3.396  0.0623  0.3400  0.1271
    1DPPC   C2A15858  27.778   8.254   3.851 -0.1251 -0.0101 -0.2783
    1DPPC   C3A15859  27.686   7.923   4.170 -0.0932  0.3413 -0.1799
    1DPPC   C4A15860  27.631   7.462   4.172  0.3449 -0.1779  0.2665
    1DPPC   C1B15861  27.546   8.653   3.566  0.0049 -0.1171 -0.2451
    1DPPC   C2B15862  27.867   8.909   3.813 -0.0275 -0.0384  0.1016
    1DPPC   C3B15863  27.941   9.167   4.158 -0.2480 -0.0644 -0.0825
    1DPPC   C4B15864  28.315   9.163   4.431  0.0427 -0.2065  0.0050
    1DPPC   NC315865  13.224   9.237   2.188  0.0293 -0.0480  0.0818
    1DPPC   PO415866  13.192   9.609   2.502  0.0283 -0.0443  0.1167
    1DPPC   GL115867  13.297   9.563   2.945  0.2080  0.0740 -0.0357
    1DPPC   GL215868  13.536   9.375   3.131  0.0396 -0.3072  0.0936
    1DPPC   C1A15869  13.529   9.901   3.076 -0.3028  0.0455  0.0032
    1DPPC   C2A15870  13.594  10.240   3.112 -0.2629 -0.1238 -0.0021
    1DPPC   C3A15871  13.560  10.525   3.426 -0.1094 -0.0299  0.0196
    1DPPC   C4A15872  13.600  10.555   3.807  0.0563  0.0212 -0.3481
    1DPPC   C1B15873  13.762   9.525   3.387  0.1707 -0.1668 -0.0730
    1DPPC   C2B15874  13.653   9.427   3.735  0.0087 -0.1021 -0.0157
    1DPPC   C3B15875  13.693   9.611   4.095 -0.0897  0.1149 -0.0109
    1DPPC   C4B15876  13.653   9.475   4.375 -0.1142 -0.0575 -0.2295
    1DPPC   NC315877  12.995  17.957   2.092 -0.0091 -0.0822  0.1752
    1DPPC   PO415878  13.368  17.938   2.312  0.3121  0.1931 -0.1642
    1DPPC   GL115879  13.448  18.264   2.607  0.0824  0.0038 -0.0958
    1DPPC   GL215880  13.782  18.285   2.608 -0.3397  0.1364  0.0190
    1DPPC   C1A15881  13.514  18.449   2.940  0.0472 -0.2339 -0.2117
    1DPPC   C2A15882  13.571  18.462   3.394  0.2068  0.0755  0.2102
    1DPPC   C3A15883  13.691  18.312   3.814  0.1448  0.0246  0.1505
    1DPPC   C4A15884  13.986  18.067   4.025  0.1508 -0.0132 -0.4512
    1DPPC   C1B15885  13.955  18.756   2.870 -0.0907  0.0113  0.0597
    1DPPC   C2B15886  13.829  18.897   3.295  0.2815 -0.1411  0.0044
    1DPPC   C3B15887  13.846  18.770   3.667  0.1108  0.2067  0.2615
    1DPPC   C4B15888  13.931  18.737   4.068 -0.3972  0.1507  0.0408
    1DPPC   NC315889   7.482  19.631   2.242 -0.0288  0.0722  0.1704
    1DPPC   PO415890   7.174  19.800   2.195  0.1321  0.1181 -0.0839
    1DPPC   GL115891   7.346  20.075   2.435  0.3220  0.0155 -0.2474
    1DPPC   GL215892   7.720  19.964   2.607 -0.0148  0.0536  0.0649
    1DPPC   C1A15893   7.345  20.047   3.005 -0.0313 -0.1903  0.2682
    1DPPC   C2A15894   7.421  20.101   3.433 -0.0367 -0.1715  0.3932
    1DPPC   C3A15895   7.681  20.409   3.732 -0.1167 -0.3327 -0.0909
    1DPPC   C4A15896   7.826  20.221   4.055  0.0324  0.1042 -0.1124
    1DPPC   C1B15897   7.822  19.978   3.113 -0.2271  0.1454  0.1077
    1DPPC   C2B15898   7.946  20.003   3.494  0.1105 -0.1168  0.0501
    1DPPC   C3B15899   8.159  19.886   3.819  0.1924 -0.4431 -0.1514
    1DPPC   C4B15900   8.345  19.708   4.158  0.1861 -0.0808  0.1209
    1DPPC   NC315901  19.105  12.956   2.146 -0.3404  0.0185 -0.1195
    1DPPC   PO415902  19.427  13.314   2.148 -0.0685  0.3785 -0.1180
    1DPPC   GL115903  19.636  13.218   2.483  0.0888  0.0843  0.4115
    1DPPC   GL215904  19.463  12.978   2.572  0.1112  0.1130 -0.1073
    1DPPC   C1A15905  19.635  13.475   2.758  0.1980  0.0803 -0.0710
    1DPPC   C2A15906  19.664  13.555   3.075 -0.0348  0.4159  0.0655
    1DPPC   C3A15907  19.661  13.488   3.504  0.1013 -0.2884 -0.0170
    1DPPC   C4A15908  19.633  13.628   3.913 -0.3137 -0.0889 -0.1217
    1DPPC   C1B15909  19.460  12.962   2.938  0.3313  0.2104  0.0906
    1DPPC   C2B15910  19.470  13.061   3.411  0.2286 -0.1115  0.1848
    1DPPC   C3B15911  19.634  13.000   3.807 -0.1265  0.0972  0.1874
    1DPPC   C4B15912  20.025  12.887   3.945 -0.1002  0.0645 -0.0090
    1DPPC   NC315913   9.971   8.370   3.065 -0.2852 -0.0638  0.0330
    1DPPC   PO415914  10.248   8.446   3.325  0.0342  0.2578 -0.6222
    1DPPC   GL115915  10.384   8.436   3.700  0.5749 -0.1084  0.1119
    1DPPC   GL215916  10.343   8.105   3.718  0.0245 -0.1682 -0.0704
    1DPPC   C1A15917  10.464   8.627   4.119 -0.0886 -0.1032 -0.0110
    1DPPC   C2A15918  10.502   8.634   4.546  0.4431 -0.0727  0.0020
    1DPPC   C3A15919  10.569   8.838   4.968  0.2284 -0.1853  0.0008
    1DPPC   C4A15920  10.539   9.287   5.122  0.0236  0.0428 -0.4866
    1DPPC   C1B15921   9.971   8.182   4.004  0.1183 -0.1175 -0.1891
    1DPPC   C2B15922  10.044   8.381   4.406  0.0824  0.2179  0.0546
    1DPPC   C3B15923  10.110   8.423   4.797 -0.3810 -0.0865  0.0880
    1DPPC   C4B15924  10.078   8.633   5.147  0.1119 -0.0087  0.0203
    1DPPC   NC315925  20.537  12.577   2.097 -0.1078 -0.4621 -0.1458
    1DPPC   PO415926  20.146  12.813   1.849 -0.0513  0.0422  0.1352
    1DPPC   GL115927  20.132  12.704   2.316 -0.1239 -0.1547 -0.3581
    1DPPC   GL215928  20.316  12.549   2.569  0.2922 -0.2917  0.5750
    1DPPC   C1A15929  19.919  12.887   2.701  0.4714 -0.2476 -0.0518
    1DPPC   C2A15930  19.888  13.108   3.155 -0.3305  0.1688 -0.1280
    1DPPC   C3A15931  20.017  13.095   3.538  0.0616  0.1243 -0.0164
    1DPPC   C4A15932  20.416  13.167   3.730 -0.2405  0.0109  0.3384
    1DPPC   C1B15933  20.205  12.619   3.017  0.0997  0.2079  0.2414
    1DPPC   C2B15934  20.285  12.626   3.480 -0.0588  0.0038 -0.0050
    1DPPC   C3B15935  20.480  12.667   3.957  0.4298 -0.4159  0.2393
    1DPPC   C4B15936  20.586  12.865   4.197  0.1642  0.2603  0.2239
    1DPPC   NC315937  18.814  10.207   2.353 -0.2539  0.0402 -0.1506
    1DPPC   PO415938  18.529  10.576   2.218  0.0485 -0.1792  0.2157
    1DPPC   GL115939  18.711  10.778   2.665 -0.0354  0.1811  0.1985
    1DPPC   GL215940  19.062  10.734   2.740 -0.0519  0.0615  0.2409
    1DPPC   C1A15941  18.813  10.785   3.209  0.1617  0.1424 -0.0976
    1DPPC   C2A15942  18.839  10.738   3.624 -0.2221 -0.2234  0.0660
    1DPPC   C3A15943  18.753  10.839   4.020 -0.1420 -0.3016 -0.0849
    1DPPC   C4A15944  19.022  11.044   4.303  0.0336  0.2234 -0.2203
    1DPPC   C1B15945  19.279  10.524   3.069  0.0403  0.1345  0.1431
    1DPPC   C2B15946  19.289  10.401   3.538  0.1577  0.0717  0.2228
    1DPPC   C3B15947  19.023  10.391   3.876 -0.0917  0.0235 -0.1150
    1DPPC   C4B15948  18.804  10.109   4.140 -0.0875  0.0721  0.0278
    1DPPC   NC315949  20.233  10.480   1.453 -0.0714 -0.0949  0.1663
    1DPPC   PO415950  20.183  10.551   1.918 -0.2865 -0.1372 -0.4244
    1DPPC   GL115951  20.263  10.530   2.380 -0.0909  0.1440  0.4708
    1DPPC   GL215952  20.575  10.478   2.372 -0.0248 -0.2006 -0.0867
    1DPPC   C1A15953  20.098  10.758   2.642  0.2597 -0.0126 -0.1467
    1DPPC   C2A15954  19.901  10.653   3.083  0.2812  0.3344 -0.4886
    1DPPC   C3A15955  19.778  10.427   3.444  0.0498 -0.0995 -0.0293
    1DPPC   C4A15956  19.623  10.337   3.894 -0.1945  0.2861 -0.0440
    1DPPC   C1B15957  20.572  10.517   2.798 -0.2945 -0.1063  0.1910
    1DPPC   C2B15958  20.383  10.781   3.081  0.0009 -0.2923  0.1173
    1DPPC   C3B15959  20.279  10.696   3.504 -0.2935 -0.2975  0.0677
    1DPPC   C4B15960  20.449  10.700   3.837  0.2925  0.1144  0.1581
    1DPPC   NC315961  18.305  13.283   2.022  0.1595  0.1827 -0.1768
    1DPPC   PO415962  18.595  12.966   2.056  0.1023 -0.0627 -0.2421
    1DPPC   GL115963  18.776  13.061   2.510  0.0750 -0.1513 -0.2557
    1DPPC   GL215964  18.509  13.057   2.623  0.1528 -0.2110  0.1007
    1DPPC   C1A15965  18.978  13.016   2.833  0.1606  0.3684 -0.1339
    1DPPC   C2A15966  18.979  12.941   3.296  0.1076 -0.2341  0.0443
    1DPPC   C3A15967  18.990  12.995   3.680  0.1823 -0.0581 -0.0996
    1DPPC   C4A15968  19.030  12.739   4.056 -0.0059 -0.0081  0.1513
    1DPPC   C1B15969  18.563  13.177   3.058  0.0603  0.0744 -0.1226
    1DPPC   C2B15970  18.524  13.001   3.454 -0.0908 -0.2736 -0.0710
    1DPPC   C3B15971  18.483  12.789   3.892  0.1538  0.4870  0.3945
    1DPPC   C4B15972  18.543  12.963   4.292 -0.1154  0.0895  0.0223
    1DPPC   NC315973  13.186  12.787   2.412 -0.0725  0.1297  0.1521
    1DPPC   PO415974  13.393  12.996   2.371 -0.1348  0.1989  0.1119
    1DPPC   GL115975  13.194  13.104   2.771  0.0909 -0.0469  0.0459
    1DPPC   GL215976  13.518  13.097   3.008  0.0504  0.2620  0.0117
    1DPPC   C1A15977  12.992  13.024   3.236  0.0382  0.0623  0.1217
    1DPPC   C2A15978  13.032  12.940   3.746  0.2344 -0.0295 -0.1767
    1DPPC   C3A15979  13.200  12.869   4.134 -0.0304  0.2972  0.1258
    1DPPC   C4A15980  13.558  12.986   4.324  0.0423 -0.3991 -0.1502
    1DPPC   C1B15981  13.444  13.040   3.451  0.0422  0.0265 -0.1386
    1DPPC   C2B15982  13.647  12.805   3.858 -0.1377 -0.0762  0.3083
    1DPPC   C3B15983  13.966  12.720   4.079 -0.0607 -0.1681 -0.1388
    1DPPC   C4B15984  14.354  12.920   4.153  0.2226 -0.4615 -0.0815
    1DPPC   NC315985   5.215  21.967   1.980  0.1187  0.1984 -0.0354
    1DPPC   PO415986   4.842  21.762   1.922 -0.0106  0.0190 -0.1453
    1DPPC   GL115987   4.873  21.640   2.336  0.2323 -0.1900  0.2777
    1DPPC   GL215988   4.799  21.809   2.573 -0.1128 -0.1708  0.0201
    1DPPC   C1A15989   4.828  21.230   2.636 -0.4182  0.0457 -0.1109
    1DPPC   C2A15990   4.701  21.223   3.032  0.0136  0.0866  0.0893
    1DPPC   C3A15991   4.549  21.355   3.421 -0.3366  0.0540  0.0537
    1DPPC   C4A15992   4.324  21.480   3.753  0.1265 -0.0028 -0.1149
    1DPPC   C1B15993   4.648  21.745   2.932 -0.0035  0.2364 -0.0478
    1DPPC   C2B15994   4.511  22.044   3.337 -0.1400 -0.1753 -0.0407
    1DPPC   C3B15995   4.466  21.969   3.718  0.0609 -0.3610 -0.3728
    1DPPC   C4B15996   4.410  22.060   4.142  0.0704 -0.4167  0.2152
    1DPPC   NC315997  13.249   8.798   3.061 -0.1485 -0.2247 -0.3112
    1DPPC   PO415998  12.736   8.794   3.001 -0.0223 -0.1833  0.3133
    1DPPC   GL115999  12.927   8.702   3.424  0.0595  0.0404  0.2423
    1DPPC   GL216000  13.169   8.499   3.484 -0.0024 -0.1530  0.1076
    1DPPC   C1A16001  12.928   8.700   3.889 -0.2321 -0.0125 -0.0785
    1DPPC   C2A16002  12.847   8.735   4.338  0.0694  0.3942 -0.0954
    1DPPC   C3A16003  12.824   8.628   4.786 -0.0341  0.0687 -0.1553
    1DPPC   C4A16004  12.396   8.672   5.124  0.1037  0.0755  0.1274
    1DPPC   C1B16005  13.247   8.368   3.869  0.0186  0.1437 -0.0603
    1DPPC   C2B16006  13.066   8.209   4.316  0.0798  0.3457 -0.3752
    1DPPC   C3B16007  12.994   8.110   4.713 -0.0949  0.0649  0.0478
    1DPPC   C4B16008  13.163   7.948   5.120 -0.0199  0.1514  0.0323
    1DPPC   NC316009  27.675  22.661   2.748  0.1015 -0.0431 -0.0355
    1DPPC   PO416010  27.373  22.354   2.879 -0.3750  0.0964  0.0834
    1DPPC   GL116011  27.389  22.730   3.169 -0.3058  0.1621 -0.1199
    1DPPC   GL216012  27.264  23.038   3.118 -0.0592 -0.1049 -0.1569
    1DPPC   C1A16013  27.455  22.838   3.647  0.0374 -0.0141  0.2407
    1DPPC   C2A16014  27.368  23.019   4.003 -0.0225  0.1032  0.2390
    1DPPC   C3A16015  27.337  23.356   4.381 -0.1891  0.0848  0.5543
    1DPPC   C4A16016  27.068  23.636   4.696 -0.0110  0.1075  0.2446
    1DPPC   C1B16017  27.017  23.055   3.439  0.3006 -0.2077 -0.3320
    1DPPC   C2B16018  26.880  22.848   3.815 -0.1979  0.2074 -0.0701
    1DPPC   C3B16019  26.780  22.778   4.216 -0.1187  0.2366 -0.0864
    1DPPC   C4B16020  26.795  22.582   4.625 -0.0513  0.4044  0.1872
    1DPPC   NC316021   4.830   0.847   3.033  0.0615 -0.0704 -0.4973
    1DPPC   PO416022   4.815   0.670   3.452  0.1427 -0.0721 -0.2492
    1DPPC   GL116023   4.507   0.844   3.682  0.2701 -0.1876 -0.0076
    1DPPC   GL216024   4.308   0.683   3.801 -0.1959  0.1608 -0.1309
    1DPPC   C1A16025   4.478   1.040   4.157  0.0596 -0.1984  0.1892
    1DPPC   C2A16026   4.501   1.171   4.535 -0.0710  0.0128 -0.0439
    1DPPC   C3A16027   4.497   1.404   4.871  0.5186 -0.1426 -0.1528
    1DPPC   C4A16028   4.841   1.385   5.182 -0.0898  0.0609 -0.2058
    1DPPC   C1B16029   4.180   0.585   4.195  0.3226  0.1475  0.1702
    1DPPC   C2B16030   3.966   0.812   4.571 -0.2117  0.0517 -0.1007
    1DPPC   C3B16031   3.694   0.828   4.928  0.0169 -0.3533 -0.3799
    1DPPC   C4B16032   3.495   0.951   5.310 -0.1543 -0.0884 -0.0469
    1DPPC   NC316033  14.245   9.331   2.221 -0.2529 -0.2750 -0.2454
    1DPPC   PO416034  14.571   9.159   2.510  0.0289 -0.1484  0.0794
    1DPPC   GL116035  14.829   9.087   2.868  0.3381 -0.1299  0.0695
    1DPPC   GL216036  14.886   9.418   2.846  0.0041  0.0081  0.1449
    1DPPC   C1A16037  14.813   9.189   3.269  0.3492 -0.2565  0.2714
    1DPPC   C2A16038  14.592   9.362   3.703 -0.3719 -0.1372  0.0065
    1DPPC   C3A16039  14.748   9.331   4.110  0.1595 -0.0117 -0.1336
    1DPPC   C4A16040  14.774   8.985   4.452  0.0501  0.2541  0.3433
    1DPPC   C1B16041  14.899   9.654   3.213 -0.2284  0.0231 -0.0172
    1DPPC   C2B16042  15.036   9.646   3.668  0.0103 -0.1311  0.0376
    1DPPC   C3B16043  15.255   9.711   4.053  0.1541 -0.0619  0.2834
    1DPPC   C4B16044  15.395   9.778   4.439  0.0823 -0.0009 -0.1564
    1DPPC   NC316045   5.016  14.219   2.680  0.3884 -0.0708  0.0670
    1DPPC   PO416046   5.170  14.668   2.730  0.0653  0.1349  0.0018
    1DPPC   GL116047   5.254  14.432   3.122  0.1161  0.2241 -0.1561
    1DPPC   GL216048   5.261  13.969   3.145  0.0757 -0.1316 -0.2385
    1DPPC   C1A16049   5.172  14.253   3.558 -0.1419 -0.0510 -0.0303
    1DPPC   C2A16050   5.306  14.105   3.998 -0.0295 -0.1835  0.2243
    1DPPC   C3A16051   5.423  13.819   4.315 -0.1822  0.1203  0.0715
    1DPPC   C4A16052   5.604  13.520   4.515 -0.1502 -0.1674  0.1600
    1DPPC   C1B16053   5.606  13.854   3.455 -0.1215 -0.0470 -0.0033
    1DPPC   C2B16054   5.694  13.811   3.933 -0.1091  0.1926 -0.1419
    1DPPC   C3B16055   5.875  14.015   4.302 -0.0284  0.1416 -0.0053
    1DPPC   C4B16056   6.117  14.276   4.304  0.1220 -0.0066  0.1436
    1DPPC   NC316057  21.318  13.256   1.884  0.1566  0.2623 -0.0606
    1DPPC   PO416058  20.956  13.439   2.140  0.0731 -0.1427  0.2417
    1DPPC   GL116059  20.989  13.132   2.447  0.0867 -0.1253  0.0313
    1DPPC   GL216060  20.607  13.051   2.419 -0.1825  0.0775 -0.2281
    1DPPC   C1A16061  20.942  13.076   2.869 -0.0759 -0.1706 -0.2094
    1DPPC   C2A16062  21.209  13.136   3.251 -0.1497  0.0116 -0.2250
    1DPPC   C3A16063  21.334  13.192   3.649 -0.0023  0.0280 -0.2660
    1DPPC   C4A16064  21.306  13.459   4.050  0.1054 -0.0694 -0.0310
    1DPPC   C1B16065  20.485  13.036   2.790  0.1343  0.1558 -0.0554
    1DPPC   C2B16066  20.372  13.036   3.148 -0.0523 -0.0538 -0.2108
    1DPPC   C3B16067  20.729  13.309   3.287 -0.1413 -0.1647  0.0488
    1DPPC   C4B16068  20.809  13.784   3.097  0.0047 -0.1776 -0.0940
    1DPPC   NC316069  11.123  11.606   3.075  0.2095 -0.0265 -0.0765
    1DPPC   PO416070  11.549  11.447   3.134  0.0673 -0.0432 -0.0069
    1DPPC   GL116071  11.854  11.238   3.380  0.1683  0.3181  0.1299
    1DPPC   GL216072  11.805  10.903   3.304  0.1101  0.1997 -0.0627
    1DPPC   C1A16073  11.831  11.290   3.850 -0.1133 -0.2565  0.1962
    1DPPC   C2A16074  11.997  11.284   4.317  0.0596  0.1412 -0.0130
    1DPPC   C3A16075  11.817  11.318   4.818  0.0413  0.0940  0.1583
    1DPPC   C4A16076  11.621  11.376   5.180 -0.0370 -0.0502  0.1425
    1DPPC   C1B16077  11.648  10.453   3.311 -0.1137 -0.2506 -0.0924
    1DPPC   C2B16078  11.802  10.308   3.620 -0.1934  0.1611  0.3156
    1DPPC   C3B16079  11.862  10.397   4.099 -0.0319 -0.0241 -0.1731
    1DPPC   C4B16080  12.067  10.366   4.539  0.2203  0.1387 -0.1239
    1DPPC   NC316081  11.085  19.365   2.204 -0.0064  0.1622  0.2641
    1DPPC   PO416082  10.626  19.119   2.075  0.0533  0.1284  0.0024
    1DPPC   GL116083  10.674  18.834   2.468 -0.0584  0.0193  0.3626
    1DPPC   GL216084  11.013  18.985   2.628 -0.3492 -0.2108 -0.3206
    1DPPC   C1A16085  10.595  18.561   2.788 -0.2365  0.1966  0.0095
    1DPPC   C2A16086  10.605  18.424   3.144  0.1887 -0.2593 -0.0867
    1DPPC   C3A16087  10.600  18.454   3.560 -0.1929  0.1030 -0.1078
    1DPPC   C4A16088  10.397  18.371   3.909 -0.2196  0.2469 -0.1569
    1DPPC   C1B16089  10.726  19.018   2.948 -0.0785  0.0499  0.3050
    1DPPC   C2B16090  10.601  18.934   3.390  0.1388 -0.3840 -0.3613
    1DPPC   C3B16091  10.259  18.850   3.720  0.0895  0.0398  0.3014
    1DPPC   C4B16092   9.749  18.759   3.820 -0.0790 -0.1460 -0.1017
    1DPPC   NC316093  22.165  17.997   2.495 -0.0303 -0.0626  0.5106
    1DPPC   PO416094  22.256  18.354   2.755  0.1881  0.4992  0.1718
    1DPPC   GL116095  22.369  18.160   3.079  0.0167 -0.0834  0.2666
    1DPPC   GL216096  22.668  18.078   3.049  0.2652  0.0099  0.0097
    1DPPC   C1A16097  22.511  18.062   3.531 -0.0855 -0.2205  0.1665
    1DPPC   C2A16098  22.577  17.911   3.984  0.2372  0.2468  0.2397
    1DPPC   C3A16099  22.745  17.725   4.355 -0.2979 -0.1425  0.4124
    1DPPC   C4A16100  22.989  17.597   4.686 -0.3786  0.2146  0.2759
    1DPPC   C1B16101  22.929  17.715   3.242 -0.1433  0.2121  0.3515
    1DPPC   C2B16102  23.057  17.326   3.428 -0.1324  0.1049  0.1224
    1DPPC   C3B16103  23.274  17.149   3.822 -0.3014  0.0878  0.0789
    1DPPC   C4B16104  23.465  16.949   4.141  0.0161  0.1038  0.0060
    1DPPC   NC316105  16.336  16.607   2.285  0.2567  0.0813 -0.0488
    1DPPC   PO416106  16.314  16.169   2.490  0.1378  0.1693  0.0618
    1DPPC   GL116107  16.195  16.424   2.823 -0.0357  0.0050  0.0104
    1DPPC   GL216108  16.048  16.720   2.779  0.0727 -0.2095 -0.0868
    1DPPC   C1A16109  16.269  16.265   3.226 -0.2148 -0.0323 -0.2992
    1DPPC   C2A16110  16.258  16.421   3.602 -0.2032 -0.2289 -0.3255
    1DPPC   C3A16111  16.043  16.497   4.045 -0.1261 -0.0287 -0.1099
    1DPPC   C4A16112  16.087  16.539   4.420  0.1342 -0.1909  0.1102
    1DPPC   C1B16113  16.121  16.789   3.181  0.1512 -0.1488 -0.0797
    1DPPC   C2B16114  16.260  16.906   3.623  0.0931  0.0161 -0.2330
    1DPPC   C3B16115  16.401  16.861   3.916 -0.0684  0.0631  0.0353
    1DPPC   C4B16116  16.489  16.790   4.278  0.1799 -0.2153  0.1654
    1DPPC   NC316117  19.518  16.367   1.575  0.0652  0.0151 -0.1742
    1DPPC   PO416118  19.561  16.276   2.071 -0.2219 -0.2587 -0.0594
    1DPPC   GL116119  19.620  16.266   2.554  0.0728 -0.1669  0.0331
    1DPPC   GL216120  19.671  16.510   2.784 -0.3426  0.1639 -0.0435
    1DPPC   C1A16121  19.393  16.081   2.834 -0.0394  0.2044 -0.3082
    1DPPC   C2A16122  19.296  16.117   3.178 -0.2217  0.0847 -0.1513
    1DPPC   C3A16123  19.324  16.025   3.542 -0.0320 -0.1487 -0.1620
    1DPPC   C4A16124  19.254  16.159   3.977 -0.0324 -0.0620 -0.1136
    1DPPC   C1B16125  19.622  16.469   3.191  0.2114 -0.1762  0.1842
    1DPPC   C2B16126  19.658  16.422   3.647  0.1464  0.0836 -0.2125
    1DPPC   C3B16127  19.743  16.362   4.040 -0.5005 -0.0169  0.1924
    1DPPC   C4B16128  19.940  16.245   4.426 -0.0471 -0.3053  0.2106
    1DPPC   NC316129  21.538  17.783   2.464  0.1312 -0.1939  0.1104
    1DPPC   PO416130  21.678  18.065   2.590  0.0574  0.0483 -0.0523
    1DPPC   GL116131  21.908  17.868   2.939 -0.1932  0.1748  0.2383
    1DPPC   GL216132  21.780  17.524   2.836  0.1449 -0.0914  0.1438
    1DPPC   C1A16133  22.008  17.916   3.321  0.2500  0.1281  0.0307
    1DPPC   C2A16134  22.150  17.687   3.747 -0.0068 -0.0891  0.0370
    1DPPC   C3A16135  22.399  17.446   4.048 -0.1084  0.0708 -0.1232
    1DPPC   C4A16136  22.336  17.093   4.150 -0.1937  0.0659 -0.1608
    1DPPC   C1B16137  21.864  17.425   3.357  0.0800  0.0626 -0.0154
    1DPPC   C2B16138  21.962  17.236   3.843 -0.0014  0.1208  0.2500
    1DPPC   C3B16139  21.886  16.827   4.008  0.1282 -0.0531 -0.0084
    1DPPC   C4B16140  21.720  16.414   4.216  0.2401  0.4355  0.0711
    1DPPC   NC316141  24.201  12.307   1.983 -0.1368 -0.2716  0.2327
    1DPPC   PO416142  24.045  12.587   2.258 -0.3749 -0.0502 -0.1889
    1DPPC   GL116143  23.838  12.566   2.740 -0.0601 -0.1238 -0.0519
    1DPPC   GL216144  23.999  12.378   2.937  0.0218 -0.0226 -0.1345
    1DPPC   C1A16145  23.626  12.664   3.148 -0.0970 -0.1576  0.0144
    1DPPC   C2A16146  23.675  12.767   3.537 -0.1592 -0.1493 -0.0844
    1DPPC   C3A16147  23.642  13.049   3.741  0.0787  0.1682  0.2840
    1DPPC   C4A16148  23.587  13.425   3.954  0.1511  0.2377  0.0345
    1DPPC   C1B16149  24.118  12.674   3.248 -0.0647  0.1113 -0.3099
    1DPPC   C2B16150  24.133  12.977   3.611  0.2321  0.1874 -0.1058
    1DPPC   C3B16151  24.113  13.180   4.096 -0.0932  0.1196 -0.0479
    1DPPC   C4B16152  23.818  13.418   4.355 -0.0964  0.1467  0.4566
    1DPPC   NC316153  10.832  19.949   2.193 -0.0446 -0.1122 -0.1075
    1DPPC   PO416154  10.572  19.652   2.227  0.0624  0.0147 -0.0309
    1DPPC   GL116155  10.696  19.354   2.523  0.1375  0.0203 -0.0082
    1DPPC   GL216156  10.361  19.223   2.625 -0.3624 -0.0331  0.0449
    1DPPC   C1A16157  10.690  19.522   2.937  0.2117 -0.1606  0.1871
    1DPPC   C2A16158  10.653  19.410   3.412 -0.0694 -0.1270  0.0539
    1DPPC   C3A16159  10.582  19.159   3.906 -0.1285  0.1946 -0.2939
    1DPPC   C4A16160  10.688  18.785   3.954 -0.0233 -0.0265  0.2708
    1DPPC   C1B16161  10.271  19.201   3.121 -0.1638  0.0347  0.3053
    1DPPC   C2B16162  10.136  19.323   3.579 -0.2354  0.0022 -0.2630
    1DPPC   C3B16163  10.003  19.268   3.905 -0.3950 -0.3189 -0.1389
    1DPPC   C4B16164   9.644  19.404   4.299 -0.2466 -0.0525  0.0758
    1DPPC   NC316165  12.195  12.913   1.991 -0.1610 -0.2373  0.1743
    1DPPC   PO416166  12.300  13.134   2.332  0.0882  0.0963 -0.3440
    1DPPC   GL116167  12.202  13.081   2.820 -0.0015  0.0608  0.3299
    1DPPC   GL216168  12.488  12.982   3.011 -0.0903  0.1008 -0.0251
    1DPPC   C1A16169  11.901  13.032   3.127  0.0036  0.1616  0.2556
    1DPPC   C2A16170  11.896  12.794   3.477  0.1314  0.3875  0.4463
    1DPPC   C3A16171  12.074  12.856   3.886  0.0313 -0.0231 -0.1046
    1DPPC   C4A16172  11.929  12.946   4.298 -0.2518  0.2703  0.1552
    1DPPC   C1B16173  12.469  12.937   3.382  0.0577  0.1275 -0.1110
    1DPPC   C2B16174  12.526  12.949   3.707  0.0225 -0.3120 -0.0545
    1DPPC   C3B16175  12.477  12.964   4.190 -0.0320  0.0827 -0.3300
    1DPPC   C4B16176  12.483  13.021   4.577 -0.0790  0.1399  0.0687
    1DPPC   NC316177  21.458   4.063   2.921 -0.1402 -0.3060 -0.1815
    1DPPC   PO416178  21.904   4.156   3.115 -0.0392  0.1247 -0.1778
    1DPPC   GL116179  22.153   4.148   3.452  0.0251 -0.0978  0.0103
    1DPPC   GL216180  22.183   3.851   3.692  0.0568  0.1292 -0.0760
    1DPPC   C1A16181  22.249   4.234   3.938  0.2205  0.2090  0.1297
    1DPPC   C2A16182  22.124   4.572   4.233 -0.0290  0.2855 -0.0884
    1DPPC   C3A16183  22.054   4.956   4.531  0.1075  0.2632 -0.0399
    1DPPC   C4A16184  22.240   5.359   4.729 -0.0276  0.2178 -0.0963
    1DPPC   C1B16185  21.971   3.731   4.122 -0.0315 -0.0348 -0.0044
    1DPPC   C2B16186  21.755   3.839   4.495  0.0830 -0.0045 -0.0277
    1DPPC   C3B16187  21.799   3.871   4.950 -0.1414  0.1947 -0.1186
    1DPPC   C4B16188  21.751   3.832   5.364 -0.0376  0.2801 -0.0045
    1DPPC   NC316189   7.940  12.636   2.892 -0.1143 -0.0536  0.0002
    1DPPC   PO416190   8.220  13.051   2.958 -0.1024  0.2640  0.1130
    1DPPC   GL116191   8.488  13.260   3.189  0.0196  0.0022  0.2808
    1DPPC   GL216192   8.614  13.590   3.171 -0.0471 -0.0526 -0.0309
    1DPPC   C1A16193   8.763  13.226   3.455  0.0898  0.0456 -0.1883
    1DPPC   C2A16194   8.872  13.287   3.868 -0.1435  0.2124 -0.0305
    1DPPC   C3A16195   9.021  13.290   4.248  0.1991 -0.0896  0.2694
    1DPPC   C4A16196   9.033  13.247   4.632  0.1469  0.0184  0.0626
    1DPPC   C1B16197   8.757  13.757   3.496  0.2089  0.1876  0.1232
    1DPPC   C2B16198   8.894  13.856   3.958  0.0192  0.0754 -0.0075
    1DPPC   C3B16199   8.956  14.057   4.346 -0.2583  0.1846 -0.1443
    1DPPC   C4B16200   8.957  14.019   4.758  0.0789 -0.3382  0.2484
    1DPPC   NC316201  17.980  18.455   2.162  0.3520  0.0808  0.1879
    1DPPC   PO416202  18.061  18.158   2.347  0.1923 -0.0901 -0.2512
    1DPPC   GL116203  18.015  18.052   2.824 -0.0064  0.2064  0.0730
    1DPPC   GL216204  17.932  17.773   2.967  0.1681 -0.0576  0.1630
    1DPPC   C1A16205  18.144  18.278   3.132 -0.1435  0.1652  0.0769
    1DPPC   C2A16206  18.151  18.352   3.576 -0.1985 -0.2141  0.1896
    1DPPC   C3A16207  18.172  18.248   4.002 -0.1508 -0.0042  0.0121
    1DPPC   C4A16208  18.109  18.310   4.424 -0.0461 -0.0367 -0.1756
    1DPPC   C1B16209  18.128  17.780   3.465 -0.2286 -0.0887  0.2771
    1DPPC   C2B16210  18.084  17.743   3.977  0.0128  0.1825  0.1110
    1DPPC   C3B16211  18.179  17.839   4.355 -0.0716  0.0094  0.2322
    1DPPC   C4B16212  18.178  17.965   4.796 -0.0681  0.1436 -0.0254
    1DPPC   NC316213  20.267   7.054   2.590  0.2532  0.1947  0.2987
    1DPPC   PO416214  20.263   6.928   2.946  0.0506  0.0729  0.1714
    1DPPC   GL116215  19.985   7.035   3.251  0.0757  0.0875 -0.2160
    1DPPC   GL216216  19.654   6.932   3.253 -0.0287  0.1246  0.0031
    1DPPC   C1A16217  19.668   7.334   3.662 -0.0103 -0.0036  0.1766
    1DPPC   C2A16218  19.255   7.523   3.709  0.0372 -0.0700 -0.1953
    1DPPC   C3A16219  18.831   7.415   3.835 -0.2179 -0.3594 -0.3141
    1DPPC   C4A16220  18.675   7.032   3.846 -0.1736 -0.2096 -0.1572
    1DPPC   C1B16221  19.295   6.914   3.594  0.0993  0.1708  0.1138
    1DPPC   C2B16222  19.175   6.985   4.025  0.1900 -0.0482  0.2423
    1DPPC   C3B16223  18.840   6.811   4.376 -0.4146  0.1148  0.1814
    1DPPC   C4B16224  18.425   6.831   4.474  0.3938  0.1016  0.1726
    1DPPC   NC316225  16.589  13.743   1.835 -0.1014 -0.1037 -0.0355
    1DPPC   PO416226  16.972  14.013   2.064  0.1246  0.0765 -0.3248
    1DPPC   GL116227  17.229  14.311   2.376 -0.3333 -0.1041 -0.0388
    1DPPC   GL216228  16.960  14.170   2.604  0.2099  0.4565 -0.0092
    1DPPC   C1A16229  17.321  14.678   2.538 -0.2063 -0.1440 -0.1053
    1DPPC   C2A16230  17.622  14.790   2.933  0.0373  0.0781 -0.1876
    1DPPC   C3A16231  17.749  14.504   3.209  0.2107  0.2089 -0.3581
    1DPPC   C4A16232  17.871  14.071   3.330 -0.0011 -0.0468 -0.2526
    1DPPC   C1B16233  16.968  14.230   2.978 -0.1501 -0.3978 -0.0278
    1DPPC   C2B16234  16.970  14.268   3.400  0.2785 -0.1669  0.0160
    1DPPC   C3B16235  17.214  14.367   3.784 -0.2485  0.0463  0.1353
    1DPPC   C4B16236  17.284  14.203   4.166 -0.0678 -0.1599 -0.2089
    1DPPC   NC316237  21.193  12.069   2.185 -0.0535  0.1265  0.1570
    1DPPC   PO416238  21.034  12.463   2.280 -0.0634  0.0759  0.0313
    1DPPC   GL116239  21.214  12.264   2.674 -0.2099 -0.1943 -0.1574
    1DPPC   GL216240  21.375  12.510   2.691 -0.0171 -0.2169  0.1582
    1DPPC   C1A16241  21.214  12.134   3.045 -0.1116  0.2277 -0.1363
    1DPPC   C2A16242  21.139  12.166   3.471  0.1298  0.2163 -0.0272
    1DPPC   C3A16243  21.054  12.226   3.886 -0.0523  0.1126 -0.0387
    1DPPC   C4A16244  20.911  12.471   4.056  0.0560 -0.3870 -0.1321
    1DPPC   C1B16245  21.315  12.685   3.061 -0.3316  0.0321  0.0228
    1DPPC   C2B16246  21.325  12.665   3.426 -0.2327 -0.1135 -0.1598
    1DPPC   C3B16247  21.357  12.630   3.776  0.0011 -0.0348 -0.2486
    1DPPC   C4B16248  21.249  12.890   4.084  0.0617  0.2195  0.1231
    1DPPC   NC316249  20.299  15.884   1.713 -0.0827 -0.1951  0.1058
    1DPPC   PO416250  20.524  16.018   2.094 -0.1656 -0.2880 -0.0432
    1DPPC   GL116251  20.455  16.062   2.488 -0.0439 -0.1306  0.3613
    1DPPC   GL216252  20.127  16.062   2.580  0.0455  0.1067  0.1855
    1DPPC   C1A16253  20.524  15.946   2.876 -0.0275  0.0491 -0.0693
    1DPPC   C2A16254  20.361  15.981   3.155 -0.1719 -0.0088  0.1386
    1DPPC   C3A16255  20.283  15.883   3.653  0.0448  0.0918 -0.0462
    1DPPC   C4A16256  20.158  15.808   4.069 -0.1325  0.1487  0.0848
    1DPPC   C1B16257  19.894  16.122   2.966 -0.2472  0.3421  0.2923
    1DPPC   C2B16258  19.855  16.077   3.332 -0.0694  0.3387  0.1227
    1DPPC   C3B16259  19.738  15.890   3.803  0.0874 -0.0660  0.0229
    1DPPC   C4B16260  19.521  15.718   4.045  0.1193 -0.0727 -0.0127
    1DPPC   NC316261  19.492  14.490   1.439 -0.0768  0.1503 -0.2302
    1DPPC   PO416262  19.454  14.209   1.916 -0.0617  0.2136 -0.1480
    1DPPC   GL116263  19.564  14.093   2.378  0.0659  0.2794  0.2844
    1DPPC   GL216264  19.395  13.908   2.544 -0.0728  0.0014 -0.1200
    1DPPC   C1A16265  19.831  13.977   2.709  0.1661 -0.2336 -0.3037
    1DPPC   C2A16266  19.868  14.017   3.102 -0.0285  0.0846  0.2895
    1DPPC   C3A16267  19.858  14.022   3.542 -0.1745  0.1641  0.0128
    1DPPC   C4A16268  20.084  13.843   3.862  0.0008 -0.0346 -0.1209
    1DPPC   C1B16269  19.356  13.946   2.973 -0.0107  0.2198 -0.2481
    1DPPC   C2B16270  19.395  14.062   3.364 -0.0324 -0.3625  0.0148
    1DPPC   C3B16271  19.298  13.965   3.689 -0.2562  0.0432 -0.0077
    1DPPC   C4B16272  19.163  13.950   4.154  0.3888  0.1087 -0.6118
    1DPPC   NC316273  21.234  14.666   1.733  0.4165 -0.1817 -0.0215
    1DPPC   PO416274  20.745  14.669   1.969 -0.0617 -0.2330  0.0065
    1DPPC   GL116275  20.589  14.774   2.402 -0.0257  0.0060  0.1009
    1DPPC   GL216276  20.557  14.461   2.568 -0.2183  0.1856  0.0075
    1DPPC   C1A16277  20.817  14.992   2.795 -0.2963 -0.4433  0.0118
    1DPPC   C2A16278  20.964  14.828   3.138 -0.1990 -0.0315 -0.0601
    1DPPC   C3A16279  20.949  14.620   3.504 -0.2507  0.0348 -0.0401
    1DPPC   C4A16280  20.950  14.641   3.952 -0.1031  0.0577 -0.2429
    1DPPC   C1B16281  20.602  14.488   3.025 -0.1389 -0.2636  0.0893
    1DPPC   C2B16282  20.654  14.239   3.337  0.0108  0.1137  0.1134
    1DPPC   C3B16283  20.957  14.158   3.693  0.5171 -0.1712 -0.1364
    1DPPC   C4B16284  21.326  13.971   3.911  0.0257  0.0696 -0.0486
    1DPPC   NC316285  18.378  21.414   2.858 -0.1531 -0.1714  0.0835
    1DPPC   PO416286  18.777  21.303   2.910  0.1912 -0.0463  0.0190
    1DPPC   GL116287  18.623  21.088   3.358  0.1449  0.1117 -0.1092
    1DPPC   GL216288  18.252  21.082   3.260  0.0955  0.0133  0.1288
    1DPPC   C1A16289  18.456  20.885   3.658  0.2178  0.1826  0.0477
    1DPPC   C2A16290  18.504  20.613   3.989  0.0245 -0.6664  0.1562
    1DPPC   C3A16291  18.439  20.717   4.462 -0.0156 -0.1930  0.1046
    1DPPC   C4A16292  18.199  20.794   4.744  0.1161 -0.0974 -0.0648
    1DPPC   C1B16293  17.930  21.208   3.527 -0.2165 -0.1732  0.2514
    1DPPC   C2B16294  17.930  21.256   4.006  0.0468  0.1329 -0.0239
    1DPPC   C3B16295  18.114  21.145   4.428 -0.2556 -0.1415  0.2583
    1DPPC   C4B16296  18.099  21.238   4.915 -0.1530  0.2155  0.0797
    1DPPC   NC316297  17.516  12.719   1.674  0.0337 -0.1063 -0.2576
    1DPPC   PO416298  17.909  13.013   1.935  0.0172  0.2125 -0.1093
    1DPPC   GL116299  17.917  13.093   2.325 -0.0388  0.0342  0.1659
    1DPPC   GL216300  17.544  13.297   2.468 -0.2752  0.0140 -0.1012
    1DPPC   C1A16301  18.076  13.354   2.695 -0.0427 -0.0245  0.1596
    1DPPC   C2A16302  18.077  13.329   3.114  0.0144  0.3865 -0.0886
    1DPPC   C3A16303  18.064  13.318   3.548  0.0257  0.2245 -0.0734
    1DPPC   C4A16304  18.287  13.362   4.017  0.2251  0.5189 -0.0733
    1DPPC   C1B16305  17.610  13.245   2.934  0.1184  0.1634 -0.2298
    1DPPC   C2B16306  17.628  13.034   3.344  0.2131  0.3925  0.1137
    1DPPC   C3B16307  17.627  13.113   3.795 -0.0374  0.0933  0.0144
    1DPPC   C4B16308  17.630  13.230   4.252  0.0991 -0.0258 -0.0804
    1DPPC   NC316309  19.529  11.604   1.988  0.0897  0.1065  0.2306
    1DPPC   PO416310  19.496  11.149   2.040  0.3712  0.0266 -0.2208
    1DPPC   GL116311  19.351  11.318   2.472  0.0722 -0.0113  0.0163
    1DPPC   GL216312  18.950  11.255   2.550 -0.0087 -0.0353  0.1141
    1DPPC   C1A16313  19.293  11.497   2.801  0.0272 -0.2325 -0.4322
    1DPPC   C2A16314  19.236  11.587   3.159 -0.1594  0.1287  0.3351
    1DPPC   C3A16315  19.207  11.567   3.584  0.1642 -0.1276  0.0358
    1DPPC   C4A16316  19.233  11.405   4.015  0.2201  0.1030 -0.1611
    1DPPC   C1B16317  18.943  11.161   2.956 -0.1965 -0.1117 -0.2489
    1DPPC   C2B16318  18.930  11.205   3.375  0.3455  0.2800 -0.2198
    1DPPC   C3B16319  18.767  11.253   3.756 -0.2000  0.0926  0.0155
    1DPPC   C4B16320  18.641  11.379   4.145 -0.4495  0.1262 -0.1012
    1DPPC   NC316321  14.816  15.550   2.492  0.0436  0.2025 -0.0658
    1DPPC   PO416322  14.996  15.833   2.204  0.0337 -0.2275 -0.2759
    1DPPC   GL116323  15.005  15.996   2.621 -0.0545 -0.1253  0.0367
    1DPPC   GL216324  15.361  16.018   2.727 -0.0227  0.0331  0.1822
    1DPPC   C1A16325  14.754  15.923   3.054  0.0913  0.2513 -0.0921
    1DPPC   C2A16326  14.758  15.841   3.417 -0.0631 -0.3253 -0.3158
    1DPPC   C3A16327  14.868  15.864   3.856 -0.0598 -0.1216  0.2524
    1DPPC   C4A16328  14.989  15.735   4.175  0.1256 -0.2754  0.0373
    1DPPC   C1B16329  15.372  15.925   3.194 -0.1498 -0.2582 -0.0425
    1DPPC   C2B16330  15.388  15.844   3.667 -0.1735 -0.2630  0.2051
    1DPPC   C3B16331  15.409  16.026   4.093  0.0213 -0.0705  0.2514
    1DPPC   C4B16332  15.216  16.247   4.466 -0.1530 -0.0545 -0.0267
    1DPPC   NC316333  10.742   1.618   3.161  0.0299 -0.1624 -0.1347
    1DPPC   PO416334  10.508   1.761   3.402  0.0780 -0.1771  0.0227
    1DPPC   GL116335  10.153   1.508   3.579 -0.1719 -0.2400 -0.1983
    1DPPC   GL216336   9.847   1.528   3.539 -0.0774 -0.1778  0.0118
    1DPPC   C1A16337  10.169   1.518   3.958 -0.1358 -0.2451  0.3041
    1DPPC   C2A16338  10.033   1.458   4.359 -0.5488 -0.1050 -0.4032
    1DPPC   C3A16339   9.921   1.256   4.724  0.2913 -0.2135  0.3403
    1DPPC   C4A16340   9.775   1.371   5.068  0.1663 -0.0371 -0.1957
    1DPPC   C1B16341   9.753   1.259   3.914 -0.0936  0.0162  0.0792
    1DPPC   C2B16342   9.980   0.998   4.307  0.1679 -0.1788 -0.2695
    1DPPC   C3B16343   9.850   0.784   4.611 -0.1623 -0.0248  0.1833
    1DPPC   C4B16344   9.463   1.005   4.865  0.3657 -0.1326 -0.0506
    1DPPC   NC316345  16.402  13.173   1.910 -0.2507  0.1091 -0.4214
    1DPPC   PO416346  16.820  13.216   1.956 -0.1210 -0.1720  0.1494
    1DPPC   GL116347  16.644  13.457   2.291 -0.1293 -0.3813  0.1271
    1DPPC   GL216348  16.642  13.281   2.545  0.2293 -0.2127  0.0561
    1DPPC   C1A16349  16.589  13.762   2.773  0.2359 -0.2834 -0.2213
    1DPPC   C2A16350  16.555  13.935   3.088  0.1243  0.0708 -0.1105
    1DPPC   C3A16351  16.559  13.858   3.405  0.1369 -0.1691  0.1601
    1DPPC   C4A16352  16.371  13.713   3.760 -0.0834 -0.1769 -0.1077
    1DPPC   C1B16353  16.685  13.330   3.026 -0.1672 -0.2348 -0.1167
    1DPPC   C2B16354  16.626  13.356   3.453  0.1749  0.0447  0.3478
    1DPPC   C3B16355  16.773  13.441   3.860 -0.2106  0.1022 -0.2858
    1DPPC   C4B16356  16.541  13.653   4.285 -0.0608 -0.0040  0.0714
    1DPPC   NC316357  17.446  21.308   3.010 -0.1305 -0.4619  0.2313
    1DPPC   PO416358  17.250  20.850   2.930  0.0013 -0.0728 -0.0680
    1DPPC   GL116359  17.409  20.769   3.323 -0.2129 -0.1153 -0.0986
    1DPPC   GL216360  17.301  20.991   3.453 -0.1999 -0.0487 -0.0243
    1DPPC   C1A16361  17.442  20.585   3.763 -0.0324  0.0769 -0.0988
    1DPPC   C2A16362  17.414  20.547   4.250 -0.2246  0.1836 -0.1037
    1DPPC   C3A16363  17.326  20.601   4.599  0.0285 -0.0746 -0.1775
    1DPPC   C4A16364  17.232  20.785   4.939 -0.2344 -0.0262 -0.1455
    1DPPC   C1B16365  17.478  21.121   3.813 -0.0603 -0.2885  0.1552
    1DPPC   C2B16366  17.526  21.026   4.211 -0.3927  0.6129 -0.0796
    1DPPC   C3B16367  17.679  20.956   4.628  0.0013 -0.1080  0.1702
    1DPPC   C4B16368  17.642  21.021   5.121 -0.1087  0.0393  0.2060
    1DPPC   NC316369  22.519  16.027   2.141  0.2628 -0.1655 -0.0850
    1DPPC   PO416370  22.595  15.581   2.086  0.2593 -0.0612 -0.0490
    1DPPC   GL116371  22.728  15.484   2.481  0.1291 -0.1103  0.0413
    1DPPC   GL216372  22.577  15.767   2.586 -0.0010  0.0732  0.3605
    1DPPC   C1A16373  22.878  15.386   2.890  0.3265 -0.1850  0.5926
    1DPPC   C2A16374  22.774  15.371   3.289  0.3618 -0.5874 -0.1013
    1DPPC   C3A16375  22.668  15.078   3.643 -0.1058  0.2276  0.0949
    1DPPC   C4A16376  22.523  14.592   3.750 -0.1555 -0.1351 -0.1347
    1DPPC   C1B16377  22.494  15.746   3.027 -0.0646  0.1246  0.0792
    1DPPC   C2B16378  22.413  16.024   3.384 -0.1550 -0.2660 -0.1354
    1DPPC   C3B16379  22.551  16.075   3.824  0.2404  0.3359 -0.1881
    1DPPC   C4B16380  22.765  16.287   4.146 -0.1759 -0.1696 -0.0504
    1DPPC   NC316381  21.141  18.529   2.854 -0.1523  0.0024 -0.0564
    1DPPC   PO416382  21.496  18.534   2.713  0.2596  0.0738 -0.2883
    1DPPC   GL116383  21.572  18.482   3.120 -0.2043  0.0792  0.0435
    1DPPC   GL216384  21.849  18.376   3.102  0.0668 -0.2169 -0.1037
    1DPPC   C1A16385  21.670  18.389   3.553  0.2250 -0.0503  0.1424
    1DPPC   C2A16386  21.572  18.365   3.975  0.0399 -0.2006  0.1595
    1DPPC   C3A16387  21.583  18.236   4.454  0.0463  0.1604 -0.2489
    1DPPC   C4A16388  21.688  17.965   4.794 -0.2274 -0.2129  0.2911
    1DPPC   C1B16389  22.186  18.433   3.418 -0.2421  0.1716  0.2305
    1DPPC   C2B16390  22.092  18.166   3.746  0.0087  0.2821 -0.1614
    1DPPC   C3B16391  22.026  18.093   4.077 -0.2175 -0.4055 -0.0438
    1DPPC   C4B16392  22.224  17.844   4.411  0.0011 -0.0228  0.1869
    1DPPC   NC316393  10.074  19.950   2.015  0.1965 -0.0421 -0.0913
    1DPPC   PO416394  10.406  20.208   2.152 -0.0835  0.0775  0.1561
    1DPPC   GL116395  10.389  20.414   2.546  0.0060 -0.1727  0.4815
    1DPPC   GL216396  10.526  20.769   2.710 -0.2055  0.2986 -0.1193
    1DPPC   C1A16397  10.215  20.344   2.932 -0.1074  0.2135  0.0266
    1DPPC   C2A16398  10.016  20.408   3.386  0.1079 -0.2821  0.2193
    1DPPC   C3A16399   9.924  20.562   3.766 -0.2188  0.1484  0.1045
    1DPPC   C4A16400   9.643  20.748   4.055 -0.2715  0.1258  0.1839
    1DPPC   C1B16401  10.370  20.804   3.077  0.3114  0.0045 -0.2625
    1DPPC   C2B16402  10.443  20.611   3.520 -0.0032 -0.4311 -0.0286
    1DPPC   C3B16403  10.665  20.489   3.911  0.2463 -0.2697  0.3003
    1DPPC   C4B16404  10.991  20.315   4.228 -0.0556  0.0235 -0.0359
    1DPPC   NC316405  15.786  12.565   2.304 -0.1044 -0.0880 -0.0728
    1DPPC   PO416406  15.851  13.019   2.171  0.1148  0.3896  0.0853
    1DPPC   GL116407  16.227  12.969   2.360  0.5045 -0.0823 -0.1026
    1DPPC   GL216408  16.272  12.637   2.588 -0.1158 -0.0270  0.0767
    1DPPC   C1A16409  16.261  13.112   2.811 -0.0755  0.1031 -0.4527
    1DPPC   C2A16410  16.247  13.078   3.223  0.0507  0.0472  0.0345
    1DPPC   C3A16411  16.292  13.115   3.666 -0.3563  0.1756 -0.1394
    1DPPC   C4A16412  16.363  13.248   4.021 -0.1733 -0.3373 -0.0213
    1DPPC   C1B16413  16.232  12.597   3.047  0.0436 -0.0140  0.0261
    1DPPC   C2B16414  16.290  12.592   3.479 -0.0478 -0.0120 -0.1455
    1DPPC   C3B16415  16.185  12.758   3.980  0.2411  0.1233 -0.1258
    1DPPC   C4B16416  16.294  12.855   4.388 -0.1467  0.3410  0.3613
    1DPPC   NC316417  13.414  15.770   2.286 -0.0129 -0.0449 -0.0594
    1DPPC   PO416418  13.879  15.750   2.388  0.1493  0.0903  0.1219
    1DPPC   GL116419  13.789  15.862   2.764  0.2326 -0.0549 -0.1076
    1DPPC   GL216420  13.428  15.822   2.768  0.0356  0.1775  0.1445
    1DPPC   C1A16421  13.630  15.827   3.204  0.0297 -0.1407  0.1243
    1DPPC   C2A16422  13.780  15.794   3.632  0.4500  0.3665 -0.2816
    1DPPC   C3A16423  13.841  15.790   4.059  0.0934 -0.3039  0.1008
    1DPPC   C4A16424  14.051  15.718   4.429 -0.2834 -0.3038 -0.0496
    1DPPC   C1B16425  13.105  15.944   3.100 -0.0456  0.0562  0.0346
    1DPPC   C2B16426  13.297  15.988   3.552  0.1625  0.0143 -0.0124
    1DPPC   C3B16427  13.403  15.994   3.983  0.1481 -0.2262  0.1352
    1DPPC   C4B16428  13.485  15.731   4.426 -0.0078 -0.0111  0.2774
    1DPPC   NC316429  11.568  18.786   2.023  0.2928  0.1438  0.2835
    1DPPC   PO416430  11.945  18.449   2.208  0.2227  0.0983 -0.1246
    1DPPC   GL116431  11.952  18.113   2.559  0.0659 -0.0932  0.2250
    1DPPC   GL216432  12.343  18.158   2.632  0.0508 -0.1324 -0.2560
    1DPPC   C1A16433  11.819  17.843   2.850 -0.1655  0.3288 -0.0520
    1DPPC   C2A16434  11.872  17.759   3.224 -0.1609  0.1825  0.1628
    1DPPC   C3A16435  11.819  17.791   3.707 -0.0666 -0.0240  0.1879
    1DPPC   C4A16436  11.780  17.814   4.161 -0.0265 -0.0358 -0.0389
    1DPPC   C1B16437  12.139  18.198   3.080 -0.0700 -0.0546 -0.0451
    1DPPC   C2B16438  12.198  18.072   3.467  0.0660  0.1386  0.0147
    1DPPC   C3B16439  12.259  18.029   3.892  0.0920  0.0004 -0.1724
    1DPPC   C4B16440  12.312  17.851   4.306  0.0780  0.3319 -0.0156
    1DPPC   NC316441  17.776  16.020   1.602  0.1166 -0.1266 -0.0506
    1DPPC   PO416442  17.818  16.380   1.981 -0.0986  0.0700 -0.1846
    1DPPC   GL116443  17.865  16.277   2.401 -0.0436 -0.4121  0.0229
    1DPPC   GL216444  18.190  16.250   2.698  0.0670  0.0297 -0.0469
    1DPPC   C1A16445  17.668  16.216   2.787 -0.0485 -0.1972 -0.0591
    1DPPC   C2A16446  17.695  16.147   3.168 -0.0216  0.0922 -0.1443
    1DPPC   C3A16447  17.737  16.079   3.530  0.1837 -0.0973  0.0406
    1DPPC   C4A16448  17.620  16.173   3.930 -0.2645  0.2657 -0.1500
    1DPPC   C1B16449  18.223  16.205   3.139  0.1455  0.3424  0.2515
    1DPPC   C2B16450  18.249  16.024   3.504 -0.0372  0.2049 -0.0437
    1DPPC   C3B16451  18.115  15.993   3.961 -0.0909 -0.1391 -0.3799
    1DPPC   C4B16452  18.103  16.026   4.434  0.0401 -0.0482 -0.1638
    1DPPC   NC316453  13.160  10.647   2.830  0.0970 -0.0844 -0.1463
    1DPPC   PO416454  13.407  10.978   2.670  0.3355  0.4498  0.0128
    1DPPC   GL116455  13.679  11.070   2.947  0.1587  0.1267  0.0210
    1DPPC   GL216456  13.980  11.165   2.811 -0.4325  0.0501  0.0655
    1DPPC   C1A16457  13.772  10.985   3.402 -0.0886 -0.0603  0.3223
    1DPPC   C2A16458  13.882  11.030   3.842  0.3329  0.1336  0.1607
    1DPPC   C3A16459  13.785  10.831   4.216  0.3255 -0.0967  0.3171
    1DPPC   C4A16460  13.751  10.789   4.641 -0.0213 -0.1577 -0.1452
    1DPPC   C1B16461  14.079  11.377   3.153  0.2088  0.3499 -0.2217
    1DPPC   C2B16462  14.063  11.504   3.602  0.0512 -0.3594  0.2334
    1DPPC   C3B16463  14.214  11.494   4.018 -0.0968  0.0619  0.0773
    1DPPC   C4B16464  14.007  11.584   4.440  0.1180 -0.0518  0.3505
    1DPPC   NC316465   8.586  14.394   2.387  0.1037  0.0356  0.1838
    1DPPC   PO416466   8.219  14.302   2.455 -0.1390  0.0298  0.1806
    1DPPC   GL116467   8.218  14.547   2.813 -0.1124 -0.1431 -0.0143
    1DPPC   GL216468   8.609  14.566   2.901  0.3065 -0.1162  0.0057
    1DPPC   C1A16469   8.064  14.821   3.140  0.1302  0.0892 -0.1766
    1DPPC   C2A16470   7.916  14.973   3.461 -0.0854 -0.2946 -0.1856
    1DPPC   C3A16471   7.884  14.813   3.907  0.0207  0.2080  0.0193
    1DPPC   C4A16472   7.733  14.783   4.429  0.1172  0.1275 -0.0600
    1DPPC   C1B16473   8.448  14.460   3.249 -0.1497 -0.1809 -0.1576
    1DPPC   C2B16474   8.363  14.580   3.615 -0.0449 -0.2941  0.1065
    1DPPC   C3B16475   8.327  14.563   4.060  0.3157  0.0123 -0.1359
    1DPPC   C4B16476   8.094  14.394   4.367 -0.0774  0.0638 -0.1357
    1DPPC   NC316477   8.535  21.016   1.672  0.2452  0.0393  0.1971
    1DPPC   PO416478   8.338  20.742   1.834 -0.4948  0.1322 -0.1505
    1DPPC   GL116479   8.269  20.794   2.201  0.1840  0.1113 -0.0477
    1DPPC   GL216480   8.446  21.104   2.207  0.0436 -0.0449  0.1355
    1DPPC   C1A16481   8.146  20.819   2.566  0.1139 -0.1628 -0.1561
    1DPPC   C2A16482   7.868  20.856   2.942  0.0235  0.1273  0.0515
    1DPPC   C3A16483   7.547  21.030   3.283 -0.2004 -0.0568  0.1183
    1DPPC   C4A16484   7.650  21.321   3.642  0.2431 -0.1028  0.0119
    1DPPC   C1B16485   8.513  21.155   2.609  0.2394  0.0514  0.3175
    1DPPC   C2B16486   8.410  21.261   3.099  0.2294  0.2949 -0.1910
    1DPPC   C3B16487   8.126  21.329   3.377 -0.0743  0.1132  0.0261
    1DPPC   C4B16488   8.106  21.626   3.607 -0.0457 -0.3927  0.1421
    1DPPC   NC316489  20.348  11.766   1.482  0.0525  0.2848 -0.0101
    1DPPC   PO416490  19.984  11.853   1.793  0.0764  0.0146  0.1139
    1DPPC   GL116491  19.989  11.615   2.187  0.4061 -0.3705 -0.1296
    1DPPC   GL216492  19.883  11.399   2.179  0.0962 -0.1082 -0.1839
    1DPPC   C1A16493  20.266  11.751   2.517 -0.0794  0.0266 -0.0269
    1DPPC   C2A16494  20.390  11.700   2.907  0.0588  0.1200  0.0964
    1DPPC   C3A16495  20.345  11.619   3.249  0.0007 -0.0576  0.1107
    1DPPC   C4A16496  20.293  11.699   3.657  0.1641  0.3088 -0.0311
    1DPPC   C1B16497  20.107  11.268   2.528  0.0161  0.2899  0.1339
    1DPPC   C2B16498  20.142  11.169   2.960  0.0055 -0.1533 -0.1235
    1DPPC   C3B16499  20.017  11.055   3.357  0.2267 -0.2982  0.1703
    1DPPC   C4B16500  19.812  10.773   3.761  0.1140 -0.0379  0.0197
    1DPPC   NC316501  17.037  17.994   2.539  0.1314  0.2207 -0.1608
    1DPPC   PO416502  16.687  17.876   2.261 -0.0446  0.0750 -0.1868
    1DPPC   GL116503  16.584  17.771   2.685  0.2180  0.2758  0.2163
    1DPPC   GL216504  16.549  18.126   2.750  0.1096 -0.2433 -0.3578
    1DPPC   C1A16505  16.414  17.514   2.954 -0.3299 -0.0537  0.2251
    1DPPC   C2A16506  16.437  17.558   3.437  0.2564  0.3323  0.0476
    1DPPC   C3A16507  16.352  17.410   3.783 -0.1433  0.0165 -0.2761
    1DPPC   C4A16508  16.298  17.392   4.188  0.0851 -0.0777  0.4061
    1DPPC   C1B16509  16.582  18.008   3.187  0.0123 -0.0484 -0.1847
    1DPPC   C2B16510  16.650  17.969   3.585 -0.3067  0.2679 -0.1945
    1DPPC   C3B16511  16.617  17.785   3.960  0.4647  0.0908  0.0228
    1DPPC   C4B16512  16.630  17.764   4.385 -0.1659 -0.2018 -0.0828
    1DPPC   NC316513  28.083  29.269   2.628 -0.0375 -0.1156 -0.0488
    1DPPC   PO416514  28.112  29.593   2.957  0.1563  0.1917 -0.0340
    1DPPC   GL116515  28.039  29.716   3.435  0.2031  0.0201  0.0309
    1DPPC   GL216516  27.911  29.997   3.608  0.0551 -0.0615  0.1451
    1DPPC   C1A16517  28.128  29.384   3.739  0.0730  0.0711 -0.1113
    1DPPC   C2A16518  28.198  29.208   4.186  0.0381  0.0031  0.0972
    1DPPC   C3A16519  28.413  29.215   4.564  0.2097 -0.0112 -0.0183
    1DPPC   C4A16520  28.351  28.910   4.922  0.2836 -0.0294  0.1105
    1DPPC   C1B16521  27.870  30.024   4.004  0.1376  0.2019 -0.2065
    1DPPC   C2B16522  27.551  29.939   4.245 -0.0814  0.1826 -0.2343
    1DPPC   C3B16523  27.394  29.596   4.521 -0.1865 -0.0397 -0.1238
    1DPPC   C4B16524  27.086  29.448   4.607 -0.2004  0.0212  0.0080
    1DPPC   NC316525  16.183  10.806   2.476  0.2131  0.2027 -0.0989
    1DPPC   PO416526  15.848  10.482   2.448  0.0796 -0.1187  0.3439
    1DPPC   GL116527  15.698  10.323   2.801 -0.1582  0.0606  0.0613
    1DPPC   GL216528  15.413  10.474   2.839  0.1351  0.0954  0.0047
    1DPPC   C1A16529  15.915  10.136   3.057  0.0575 -0.0613 -0.1428
    1DPPC   C2A16530  16.252   9.909   3.125 -0.0453 -0.0009  0.4685
    1DPPC   C3A16531  16.338   9.532   3.380 -0.0946 -0.2959 -0.1486
    1DPPC   C4A16532  16.052   9.306   3.578 -0.1472  0.2027  0.1772
    1DPPC   C1B16533  15.473  10.421   3.219  0.1467  0.1041  0.0051
    1DPPC   C2B16534  15.860  10.349   3.469 -0.0884 -0.2697 -0.0972
    1DPPC   C3B16535  16.027  10.203   3.923 -0.1173  0.1130  0.1978
    1DPPC   C4B16536  15.886   9.877   4.206  0.0568 -0.1020 -0.1312
    1DPPC   NC316537  12.098  19.431   2.038 -0.2706 -0.0608 -0.0667
    1DPPC   PO416538  12.058  19.944   2.211  0.1301  0.2054  0.0921
    1DPPC   GL116539  11.940  20.003   2.658  0.3349 -0.5492  0.1164
    1DPPC   GL216540  12.271  20.055   2.708  0.1977 -0.1915  0.2548
    1DPPC   C1A16541  11.944  20.161   3.095  0.2659  0.0285 -0.1317
    1DPPC   C2A16542  12.009  20.278   3.458 -0.0467  0.1333 -0.1766
    1DPPC   C3A16543  11.924  20.306   3.957  0.2293  0.1314  0.0001
    1DPPC   C4A16544  12.204  20.028   4.248  0.1004 -0.0658 -0.1375
    1DPPC   C1B16545  12.441  20.079   3.186 -0.1754 -0.0522 -0.3063
    1DPPC   C2B16546  12.442  20.124   3.637 -0.0960  0.3841  0.1749
    1DPPC   C3B16547  12.616  20.134   3.984  0.0156 -0.2878  0.1404
    1DPPC   C4B16548  12.921  19.949   4.254 -0.1856  0.2790  0.2515
    1DPPC   NC316549  14.462  18.112   1.771  0.0557  0.0710 -0.2534
    1DPPC   PO416550  14.358  17.773   2.035  0.1256 -0.0666  0.1596
    1DPPC   GL116551  14.150  17.909   2.509 -0.1008 -0.2498  0.0045
    1DPPC   GL216552  14.466  17.712   2.706 -0.0549  0.0046  0.0322
    1DPPC   C1A16553  13.995  17.698   2.973 -0.2464 -0.0617 -0.0458
    1DPPC   C2A16554  13.665  17.508   3.203  0.0540  0.1520  0.5198
    1DPPC   C3A16555  13.608  17.361   3.569 -0.2808 -0.0616  0.2306
    1DPPC   C4A16556  13.491  17.167   3.934 -0.1373  0.2938 -0.0382
    1DPPC   C1B16557  14.470  17.757   3.121  0.1209 -0.0946  0.0495
    1DPPC   C2B16558  14.474  17.771   3.469  0.0691 -0.1082 -0.1757
    1DPPC   C3B16559  14.443  17.586   3.823 -0.0813 -0.0414  0.0729
    1DPPC   C4B16560  14.189  17.641   4.106  0.4008  0.3013  0.2287
    1DPPC   NC316561  14.652  15.679   1.822  0.1097 -0.1079  0.0899
    1DPPC   PO416562  14.379  15.728   2.227  0.3895 -0.1016 -0.2292
    1DPPC   GL116563  14.350  15.716   2.672 -0.1481 -0.0076  0.0620
    1DPPC   GL216564  14.419  15.441   2.924  0.0150  0.0977 -0.0212
    1DPPC   C1A16565  14.212  15.901   3.073 -0.0752 -0.0197 -0.1208
    1DPPC   C2A16566  14.274  15.889   3.509  0.1471  0.2475  0.1548
    1DPPC   C3A16567  14.339  15.788   4.000  0.0233  0.2085  0.0117
    1DPPC   C4A16568  14.528  15.879   4.371 -0.0590  0.0119 -0.1744
    1DPPC   C1B16569  14.499  15.400   3.250  0.0445  0.4523 -0.1879
    1DPPC   C2B16570  14.611  15.358   3.682  0.0920 -0.1518  0.2709
    1DPPC   C3B16571  14.751  15.280   4.064  0.0695  0.1071 -0.0740
    1DPPC   C4B16572  14.868  15.046   4.432  0.2191 -0.0619  0.0878
    1DPPC   NC316573  12.471  10.373   2.845  0.0307 -0.1621 -0.1937
    1DPPC   PO416574  12.858  10.313   2.967  0.1188 -0.0028  0.1773
    1DPPC   GL116575  13.080  10.024   3.258  0.1518 -0.1959  0.1033
    1DPPC   GL216576  12.900   9.756   3.221  0.1038 -0.1729 -0.1252
    1DPPC   C1A16577  13.340   9.875   3.591 -0.3251  0.4351  0.2350
    1DPPC   C2A16578  13.349   9.974   4.030  0.1353 -0.2411 -0.0676
    1DPPC   C3A16579  13.464   9.918   4.487  0.0120 -0.1655  0.0790
    1DPPC   C4A16580  13.344   9.780   4.924  0.1003 -0.0724 -0.0668
    1DPPC   C1B16581  12.761   9.985   3.661 -0.2971 -0.2058 -0.2771
    1DPPC   C2B16582  12.836  10.065   4.047  0.0486  0.1902  0.1528
    1DPPC   C3B16583  13.026  10.140   4.520 -0.3046 -0.0145 -0.3022
    1DPPC   C4B16584  13.020  10.180   4.898 -0.5346  0.6146  0.1231
    1DPPC   NC316585  16.679  12.338   2.032  0.1413 -0.3409 -0.1134
    1DPPC   PO416586  16.717  12.805   2.309 -0.0901  0.2699  0.2779
    1DPPC   GL116587  16.739  12.780   2.798  0.1135  0.0224  0.1048
    1DPPC   GL216588  17.084  12.970   2.916  0.3332 -0.0021 -0.1653
    1DPPC   C1A16589  16.685  12.885   3.234 -0.2986 -0.1245  0.0820
    1DPPC   C2A16590  16.760  12.886   3.737  0.0105  0.0070  0.0377
    1DPPC   C3A16591  16.693  12.684   4.093 -0.1944 -0.1098 -0.1943
    1DPPC   C4A16592  16.619  12.471   4.487  0.2472  0.1450 -0.0328
    1DPPC   C1B16593  17.155  12.797   3.327 -0.3039  0.0453 -0.0746
    1DPPC   C2B16594  17.282  12.719   3.722 -0.2412  0.2016  0.2883
    1DPPC   C3B16595  17.149  12.936   4.053 -0.3298  0.0496  0.0327
    1DPPC   C4B16596  17.189  13.241   4.476  0.2264  0.4505 -0.1619
    1DPPC   NC316597  15.442  15.596   2.068  0.3621 -0.1990  0.1004
    1DPPC   PO416598  15.898  15.600   2.225 -0.0305 -0.0219  0.1311
    1DPPC   GL116599  15.745  15.724   2.598  0.4800 -0.2051  0.2065
    1DPPC   GL216600  15.841  16.032   2.641  0.3416 -0.0548 -0.1154
    1DPPC   C1A16601  15.533  15.535   2.965 -0.2560 -0.1078 -0.1037
    1DPPC   C2A16602  15.695  15.521   3.379 -0.2366  0.2554  0.0052
    1DPPC   C3A16603  15.777  15.540   3.769  0.0319 -0.1591  0.1784
    1DPPC   C4A16604  15.712  15.389   4.260  0.0237 -0.0689  0.2320
    1DPPC   C1B16605  15.944  15.867   3.034 -0.0415 -0.1816 -0.1458
    1DPPC   C2B16606  15.974  15.908   3.381  0.2838 -0.0263  0.0589
    1DPPC   C3B16607  15.856  16.041   3.840  0.4767  0.3008 -0.1079
    1DPPC   C4B16608  15.842  16.074   4.336  0.2084  0.2031  0.1180
    1DPPC   NC316609  14.690  21.112   1.628 -0.0974  0.1902 -0.1878
    1DPPC   PO416610  14.318  21.116   2.037  0.0808  0.1807 -0.1024
    1DPPC   GL116611  14.242  21.185   2.339 -0.1169 -0.3299 -0.1819
    1DPPC   GL216612  13.896  21.076   2.407 -0.1240  0.0700 -0.2554
    1DPPC   C1A16613  14.355  21.340   2.746 -0.6991  0.1768  0.0636
    1DPPC   C2A16614  14.555  21.440   3.098 -0.0225  0.1889 -0.3091
    1DPPC   C3A16615  14.704  21.344   3.493 -0.1574 -0.0108 -0.3452
    1DPPC   C4A16616  14.738  21.538   3.944 -0.2098 -0.1304 -0.3740
    1DPPC   C1B16617  14.055  20.895   2.781 -0.3196 -0.0816 -0.2111
    1DPPC   C2B16618  14.071  21.045   3.079 -0.1764  0.1679  0.1538
    1DPPC   C3B16619  14.131  21.239   3.426  0.0768  0.0641 -0.0450
    1DPPC   C4B16620  14.223  21.293   3.812  0.0690  0.2673 -0.0464
    1DPPC   NC316621  13.207  18.645   2.152  0.0024 -0.0030 -0.0291
    1DPPC   PO416622  12.928  18.421   2.337  0.1456  0.1209  0.2254
    1DPPC   GL116623  12.677  18.478   2.737 -0.1484  0.0373  0.0904
    1DPPC   GL216624  12.654  18.807   2.874 -0.1204  0.1099  0.0111
    1DPPC   C1A16625  12.654  18.358   3.221 -0.0396 -0.0471  0.0367
    1DPPC   C2A16626  12.584  18.299   3.605 -0.1910  0.2420 -0.0200
    1DPPC   C3A16627  12.750  18.124   3.904 -0.1088 -0.1546 -0.0175
    1DPPC   C4A16628  12.892  18.186   4.325 -0.0469 -0.0060 -0.1807
    1DPPC   C1B16629  12.689  18.845   3.353 -0.0590  0.2519  0.0996
    1DPPC   C2B16630  12.787  18.715   3.759  0.1275 -0.4469 -0.2518
    1DPPC   C3B16631  12.932  18.633   4.084  0.0776  0.0678  0.2476
    1DPPC   C4B16632  13.374  18.537   4.273  0.0590  0.0645  0.1543
    1DPPC   NC316633  10.559  15.593   2.339 -0.1695 -0.0209  0.0201
    1DPPC   PO416634  10.261  15.290   2.299 -0.2763  0.1757  0.0808
    1DPPC   GL116635  10.397  15.280   2.702 -0.1376  0.1250 -0.1687
    1DPPC   GL216636  10.338  15.068   2.963  0.2480  0.0096 -0.1108
    1DPPC   C1A16637  10.224  15.596   2.941  0.2136 -0.0270 -0.1617
    1DPPC   C2A16638  10.204  15.799   3.321  0.1885 -0.0475  0.0920
    1DPPC   C3A16639  10.340  15.864   3.771  0.4072 -0.1890  0.3597
    1DPPC   C4A16640  10.443  16.001   4.160 -0.0981  0.0136  0.1212
    1DPPC   C1B16641  10.345  15.195   3.350 -0.0883  0.4616 -0.1503
    1DPPC   C2B16642  10.390  15.340   3.734 -0.0508  0.0825 -0.0283
    1DPPC   C3B16643  10.264  15.564   4.152  0.0127 -0.0703  0.2347
    1DPPC   C4B16644  10.069  15.597   4.542  0.0701 -0.1195 -0.3108
    1DPPC   NC316645  20.954  16.251   2.256  0.0810  0.0890  0.1676
    1DPPC   PO416646  21.244  15.921   2.138 -0.1402 -0.0287 -0.0068
    1DPPC   GL116647  21.246  15.809   2.522  0.1994 -0.0015 -0.1007
    1DPPC   GL216648  20.859  15.806   2.485 -0.0310  0.3317 -0.1653
    1DPPC   C1A16649  21.395  15.669   2.843 -0.1255 -0.3225  0.0808
    1DPPC   C2A16650  21.404  15.552   3.333 -0.1073  0.0122 -0.3791
    1DPPC   C3A16651  21.258  15.452   3.659 -0.4181  0.0754 -0.0240
    1DPPC   C4A16652  21.568  15.503   4.055  0.1055  0.2497 -0.3283
    1DPPC   C1B16653  20.910  15.515   2.936  0.1620 -0.0501  0.0463
    1DPPC   C2B16654  20.974  15.324   3.203 -0.0991  0.0636  0.1291
    1DPPC   C3B16655  20.896  15.128   3.542 -0.0637 -0.0184  0.3263
    1DPPC   C4B16656  20.874  15.221   3.985  0.0533 -0.0772 -0.0814
    1DPPC   NC316657  17.856  17.666   2.478  0.3166 -0.0914 -0.0306
    1DPPC   PO416658  18.383  17.720   2.660 -0.4943  0.1671  0.1966
    1DPPC   GL116659  18.434  17.537   3.073  0.2248  0.1695  0.1133
    1DPPC   GL216660  18.476  17.192   3.014  0.0030 -0.5368  0.1510
    1DPPC   C1A16661  18.577  17.467   3.541 -0.2796 -0.0601  0.0180
    1DPPC   C2A16662  18.588  17.394   3.987  0.1632  0.1405  0.2247
    1DPPC   C3A16663  18.578  17.477   4.375  0.1400  0.0334 -0.2286
    1DPPC   C4A16664  18.561  17.625   4.776  0.0512  0.0326  0.3974
    1DPPC   C1B16665  18.515  17.010   3.369 -0.2619  0.0402  0.2167
    1DPPC   C2B16666  18.581  16.950   3.723  0.2095 -0.1447  0.3735
    1DPPC   C3B16667  18.705  16.888   4.076 -0.3791  0.0366 -0.1521
    1DPPC   C4B16668  18.638  16.974   4.469 -0.2095 -0.2790 -0.0540
    1DPPC   NC316669  20.749  16.501   1.912  0.0981 -0.1701 -0.0307
    1DPPC   PO416670  20.846  16.770   2.068 -0.1004 -0.1164  0.2170
    1DPPC   GL116671  20.951  16.728   2.413 -0.2261 -0.1111  0.3965
    1DPPC   GL216672  21.288  16.673   2.574 -0.1080  0.0223 -0.1164
    1DPPC   C1A16673  20.942  16.768   2.903  0.0668  0.1209  0.0256
    1DPPC   C2A16674  21.057  16.799   3.347 -0.1631  0.1395 -0.2658
    1DPPC   C3A16675  20.923  16.670   3.702  0.0259 -0.0365 -0.0251
    1DPPC   C4A16676  20.852  16.642   4.039 -0.1388 -0.1681  0.2531
    1DPPC   C1B16677  21.349  16.518   3.078  0.1337  0.1424 -0.2995
    1DPPC   C2B16678  21.364  16.359   3.490 -0.3696 -0.2111  0.3665
    1DPPC   C3B16679  21.238  16.306   3.960  0.2824 -0.2249  0.1380
    1DPPC   C4B16680  21.107  15.824   4.093 -0.0834  0.1171  0.0424
    1DPPC   NC316681  14.967  17.193   1.666  0.0793  0.3886 -0.3325
    1DPPC   PO416682  15.084  17.230   2.106  0.0431 -0.0845  0.0702
    1DPPC   GL116683  15.157  17.350   2.588  0.1944  0.5009 -0.0927
    1DPPC   GL216684  14.847  17.426   2.777  0.0738  0.2625  0.0090
    1DPPC   C1A16685  15.359  17.399   3.018  0.3705  0.1241 -0.2036
    1DPPC   C2A16686  15.405  17.310   3.489  0.1211 -0.1298 -0.2576
    1DPPC   C3A16687  15.382  17.339   3.905 -0.1179 -0.0222  0.2065
    1DPPC   C4A16688  15.407  17.448   4.249  0.2635 -0.1175 -0.0792
    1DPPC   C1B16689  14.802  17.321   3.204 -0.1591 -0.5428 -0.1608
    1DPPC   C2B16690  14.741  17.252   3.586  0.1112  0.2049 -0.0504
    1DPPC   C3B16691  14.815  17.149   3.917 -0.0400  0.0862 -0.3498
    1DPPC   C4B16692  14.946  17.159   4.441  0.1773 -0.3007 -0.2579
    1DPPC   NC316693  21.631  10.943   2.080  0.3049  0.2171 -0.1995
    1DPPC   PO416694  21.378  11.287   2.056  0.0705  0.0809  0.0137
    1DPPC   GL116695  21.355  11.297   2.460 -0.2331  0.0100  0.1314
    1DPPC   GL216696  21.275  11.604   2.469  0.0144 -0.0452 -0.0509
    1DPPC   C1A16697  21.252  11.243   2.976 -0.0239 -0.2732  0.0696
    1DPPC   C2A16698  21.098  11.273   3.372  0.4137  0.1063 -0.0639
    1DPPC   C3A16699  21.005  11.090   3.834 -0.1022 -0.0871 -0.0908
    1DPPC   C4A16700  20.872  10.786   4.114  0.0514  0.1388 -0.5913
    1DPPC   C1B16701  21.437  11.675   2.792 -0.0995 -0.1486  0.1373
    1DPPC   C2B16702  21.469  11.768   3.286  0.0288 -0.0737  0.0354
    1DPPC   C3B16703  21.331  11.678   3.605 -0.1174 -0.0566  0.1603
    1DPPC   C4B16704  21.444  11.884   3.976 -0.0998  0.1656  0.0011
    1DPPC   NC316705  14.036   7.799   2.458 -0.3478  0.0600  0.1045
    1DPPC   PO416706  14.006   7.838   2.872  0.2708 -0.2344  0.0870
    1DPPC   GL116707  14.188   7.820   3.243  0.0969 -0.1695 -0.0388
    1DPPC   GL216708  13.996   7.866   3.491 -0.0456  0.0708  0.1310
    1DPPC   C1A16709  14.467   8.079   3.528 -0.1348 -0.1155  0.0412
    1DPPC   C2A16710  14.579   8.205   3.926  0.2930 -0.0438  0.2307
    1DPPC   C3A16711  14.513   8.361   4.401 -0.0928  0.1875 -0.1817
    1DPPC   C4A16712  14.606   8.633   4.779 -0.0659 -0.2467 -0.0592
    1DPPC   C1B16713  14.146   7.861   3.850 -0.0125 -0.1023 -0.2818
    1DPPC   C2B16714  14.256   7.971   4.246  0.0066 -0.1855  0.0747
    1DPPC   C3B16715  14.222   7.873   4.608 -0.0349  0.1046 -0.0579
    1DPPC   C4B16716  14.016   7.889   4.989  0.1796 -0.1438 -0.2058
    1DPPC   NC316717  11.405  20.641   2.246 -0.2308  0.1677 -0.1328
    1DPPC   PO416718  11.309  20.227   2.378  0.0192  0.2299  0.2191
    1DPPC   GL116719  11.034  20.041   2.661  0.0489 -0.2586  0.3824
    1DPPC   GL216720  11.031  19.725   2.612  0.0426  0.0350  0.3437
    1DPPC   C1A16721  10.663  20.049   2.960 -0.3963 -0.1502 -0.0624
    1DPPC   C2A16722  10.750  19.961   3.280  0.2243  0.2373 -0.3613
    1DPPC   C3A16723  10.700  20.009   3.700 -0.0606 -0.2275 -0.0196
    1DPPC   C4A16724  10.612  19.989   4.110 -0.1139  0.2069  0.3053
    1DPPC   C1B16725  11.132  19.719   3.047  0.0421  0.2572 -0.1312
    1DPPC   C2B16726  11.136  19.770   3.502 -0.0583  0.1968  0.1168
    1DPPC   C3B16727  10.908  19.562   3.839  0.0262  0.0045 -0.3101
    1DPPC   C4B16728  10.406  19.615   3.872 -0.2077  0.0506  0.2767
    1DPPC   NC316729  24.338  17.268   2.037  0.3297  0.0326  0.3049
    1DPPC   PO416730  24.435  17.701   2.368 -0.2684 -0.0915 -0.2801
    1DPPC   GL116731  24.528  17.546   2.823  0.0455  0.0952  0.0281
    1DPPC   GL216732  24.268  17.543   2.936  0.0839  0.0989  0.1546
    1DPPC   C1A16733  24.755  17.404   3.230  0.0228 -0.1700 -0.2133
    1DPPC   C2A16734  24.746  17.273   3.635 -0.2571 -0.2631 -0.2035
    1DPPC   C3A16735  24.641  17.295   4.068  0.3167  0.1750  0.1320
    1DPPC   C4A16736  24.326  17.417   4.385 -0.2089 -0.1723 -0.2936
    1DPPC   C1B16737  24.320  17.212   3.173  0.1593  0.3651 -0.2463
    1DPPC   C2B16738  24.471  16.853   3.439  0.1665 -0.0441  0.1049
    1DPPC   C3B16739  24.606  16.744   3.884 -0.0187 -0.1428 -0.0131
    1DPPC   C4B16740  24.981  16.887   4.258  0.0168 -0.1330  0.2852
    1DPPC   NC316741  16.720  19.352   2.702 -0.2417 -0.1172 -0.2669
    1DPPC   PO416742  17.146  19.529   2.739  0.1452 -0.1374  0.2221
    1DPPC   GL116743  17.115  19.178   3.017  0.0466  0.0542 -0.0980
    1DPPC   GL216744  17.152  18.872   3.038 -0.3013  0.1237  0.2684
    1DPPC   C1A16745  16.977  19.140   3.362 -0.1277 -0.0583  0.2061
    1DPPC   C2A16746  17.009  19.086   3.797 -0.0619 -0.0443 -0.1251
    1DPPC   C3A16747  17.135  19.045   4.217 -0.0770  0.1134  0.2499
    1DPPC   C4A16748  16.988  19.021   4.692  0.2152 -0.1437  0.0418
    1DPPC   C1B16749  17.252  18.713   3.391  0.1760  0.0217 -0.0707
    1DPPC   C2B16750  17.258  18.667   3.810 -0.1703 -0.0644  0.0451
    1DPPC   C3B16751  17.216  18.469   4.197  0.3349  0.0426  0.0061
    1DPPC   C4B16752  17.010  18.550   4.627 -0.2295  0.1038 -0.2780
    1DPPC   NC316753  14.781  10.699   1.967  0.2749  0.1764  0.3434
    1DPPC   PO416754  15.042  10.872   2.253  0.0367 -0.0872  0.0396
    1DPPC   GL116755  15.042  11.292   2.492  0.0065  0.2628 -0.1884
    1DPPC   GL216756  15.311  11.233   2.725 -0.0631 -0.3018 -0.1148
    1DPPC   C1A16757  14.887  11.621   2.741  0.1445 -0.1244 -0.1052
    1DPPC   C2A16758  14.930  11.756   3.179 -0.1315  0.0935 -0.0115
    1DPPC   C3A16759  15.049  11.737   3.636  0.3734  0.1062 -0.0084
    1DPPC   C4A16760  15.299  11.567   3.937 -0.0076 -0.4929  0.0206
    1DPPC   C1B16761  15.037  11.278   3.081 -0.0694 -0.0778 -0.2153
    1DPPC   C2B16762  14.929  11.302   3.435 -0.5293 -0.0830 -0.0048
    1DPPC   C3B16763  14.887  11.153   3.856  0.0298 -0.2335  0.1411
    1DPPC   C4B16764  14.873  11.035   4.211  0.3496 -0.0654 -0.0470
    1DPPC   NC316765  19.655  15.516   2.123 -0.1075  0.0056  0.1137
    1DPPC   PO416766  20.142  15.450   2.010  0.0320  0.0018 -0.1505
    1DPPC   GL116767  20.128  15.514   2.437  0.0263 -0.4230  0.4281
    1DPPC   GL216768  20.369  15.603   2.476 -0.0694 -0.1723 -0.2269
    1DPPC   C1A16769  20.039  15.636   2.958  0.0938  0.1463 -0.0256
    1DPPC   C2A16770  20.013  15.480   3.426  0.2193  0.0279  0.0272
    1DPPC   C3A16771  19.894  15.386   3.920  0.3382 -0.2547 -0.1828
    1DPPC   C4A16772  19.879  14.991   4.196 -0.1546 -0.2378 -0.1425
    1DPPC   C1B16773  20.472  15.456   2.893  0.2277  0.2200 -0.0165
    1DPPC   C2B16774  20.496  15.515   3.262 -0.2646 -0.0555  0.1960
    1DPPC   C3B16775  20.387  15.350   3.728  0.1688  0.0135  0.1282
    1DPPC   C4B16776  20.323  15.296   4.103 -0.4679  0.1610  0.0218
    1DPPC   NC316777  18.851  12.623   1.760 -0.2469 -0.2666  0.1821
    1DPPC   PO416778  19.264  12.543   1.893  0.0217  0.0359 -0.3785
    1DPPC   GL116779  19.333  12.445   2.429 -0.1362  0.1726 -0.0336
    1DPPC   GL216780  19.617  12.490   2.550 -0.2554 -0.2176 -0.0640
    1DPPC   C1A16781  19.143  12.486   2.734 -0.0953  0.0189  0.0701
    1DPPC   C2A16782  19.169  12.509   3.196  0.2778  0.1791 -0.2284
    1DPPC   C3A16783  19.147  12.442   3.634 -0.0493 -0.2782 -0.1232
    1DPPC   C4A16784  19.280  12.247   4.010  0.4356 -0.2695 -0.1752
    1DPPC   C1B16785  19.628  12.465   2.981  0.0332 -0.2778  0.0130
    1DPPC   C2B16786  19.771  12.624   3.330  0.0481 -0.2387 -0.1005
    1DPPC   C3B16787  19.696  12.541   3.759 -0.3356  0.1999 -0.0447
    1DPPC   C4B16788  19.583  12.769   4.263  0.0813  0.3038 -0.1640
    1DPPC   NC316789   8.342  10.721   3.329  0.0558 -0.3707 -0.0367
    1DPPC   PO416790   8.754  10.591   3.133  0.1366  0.4664 -0.0225
    1DPPC   GL116791   8.748  10.585   3.587 -0.2668  0.1007 -0.0297
    1DPPC   GL216792   8.730  10.848   3.612  0.1382 -0.2815 -0.1499
    1DPPC   C1A16793   9.088  10.569   3.933 -0.0583  0.3042  0.1238
    1DPPC   C2A16794   9.180  10.637   4.379  0.0329 -0.1513 -0.1815
    1DPPC   C3A16795   9.192  10.595   4.816  0.0336  0.0749 -0.2182
    1DPPC   C4A16796   9.226  10.345   5.156  0.1584 -0.1196 -0.2460
    1DPPC   C1B16797   8.796  10.962   4.035 -0.2049  0.1818  0.0347
    1DPPC   C2B16798   8.831  11.082   4.523 -0.0350  0.0232 -0.2649
    1DPPC   C3B16799   8.999  11.023   4.944  0.1386 -0.1413 -0.0379
    1DPPC   C4B16800   9.178  10.865   5.204 -0.0339 -0.1503  0.0367
    1DPPC   NC316801  17.754   8.596   2.032  0.0126 -0.0682  0.1715
    1DPPC   PO416802  17.856   9.037   2.182 -0.1291  0.0997  0.0630
    1DPPC   GL116803  18.066   9.087   2.520  0.1198 -0.0403 -0.0560
    1DPPC   GL216804  18.160   9.383   2.743  0.3617  0.1966 -0.1916
    1DPPC   C1A16805  18.291   8.923   2.840 -0.1314 -0.0379  0.0460
    1DPPC   C2A16806  18.568   8.874   3.149 -0.0028 -0.3579  0.4042
    1DPPC   C3A16807  18.886   8.883   3.420  0.1167  0.1327  0.1755
    1DPPC   C4A16808  19.285   8.986   3.651 -0.0975  0.0424 -0.0075
    1DPPC   C1B16809  18.075   9.331   3.135  0.2295 -0.0147 -0.1703
    1DPPC   C2B16810  18.257   9.126   3.439 -0.0379  0.1852 -0.1724
    1DPPC   C3B16811  18.507   9.090   3.764 -0.1709  0.2798  0.0893
    1DPPC   C4B16812  18.775   8.890   3.990 -0.0389  0.0870  0.0034
    1DPPC   NC316813  20.246  14.545   2.118  0.0938  0.1514  0.0051
    1DPPC   PO416814  19.786  14.494   2.172  0.0055 -0.0156 -0.0865
    1DPPC   GL116815  19.600  14.719   2.425  0.1577 -0.1917 -0.1808
    1DPPC   GL216816  19.291  14.510   2.413 -0.2311  0.1368 -0.0043
    1DPPC   C1A16817  19.730  14.876   2.829  0.0648  0.0632 -0.0743
    1DPPC   C2A16818  19.694  15.149   3.153 -0.0323 -0.1724  0.0348
    1DPPC   C3A16819  19.735  14.979   3.448 -0.2091 -0.0399 -0.3232
    1DPPC   C4A16820  20.051  14.947   3.733  0.3011 -0.2646  0.0929
    1DPPC   C1B16821  19.480  14.374   2.798  0.2583 -0.1078 -0.1000
    1DPPC   C2B16822  19.491  14.536   3.162  0.0969 -0.1176 -0.4621
    1DPPC   C3B16823  19.601  14.437   3.580  0.0516  0.0326  0.2811
    1DPPC   C4B16824  19.714  14.224   3.983 -0.0883 -0.0280 -0.0933
    1DPPC   NC316825  14.222  16.900   2.254  0.0885 -0.0254  0.0699
    1DPPC   PO416826  14.600  17.136   2.416  0.1350  0.2397  0.2023
    1DPPC   GL116827  14.695  16.963   2.876  0.0154  0.1531 -0.1073
    1DPPC   GL216828  15.057  16.941   3.089 -0.3304 -0.1808  0.1825
    1DPPC   C1A16829  14.567  16.920   3.268 -0.0966  0.1709  0.3056
    1DPPC   C2A16830  14.685  16.706   3.689 -0.0375  0.1636  0.0948
    1DPPC   C3A16831  14.764  16.704   4.207 -0.0029  0.1094 -0.3035
    1DPPC   C4A16832  14.732  16.440   4.544 -0.2362 -0.0336  0.2110
    1DPPC   C1B16833  15.081  16.954   3.455 -0.0213  0.2525  0.1397
    1DPPC   C2B16834  15.234  16.796   3.752  0.1205  0.0333 -0.1306
    1DPPC   C3B16835  15.203  16.820   4.158 -0.2354 -0.0060  0.3183
    1DPPC   C4B16836  15.129  16.776   4.624  0.1288  0.2312 -0.0752
    1DPPC   NC316837   8.621  25.714   2.655 -0.1546 -0.1747 -0.0191
    1DPPC   PO416838   8.334  26.179   2.651 -0.1755  0.0128 -0.0775
    1DPPC   GL116839   8.330  26.045   3.073 -0.2730 -0.0831  0.1063
    1DPPC   GL216840   8.266  26.267   3.333 -0.0520 -0.0087  0.2088
    1DPPC   C1A16841   8.174  25.746   3.409  0.1390 -0.0270 -0.3626
    1DPPC   C2A16842   7.920  25.998   3.677  0.1052 -0.1494 -0.2070
    1DPPC   C3A16843   7.805  25.946   4.040  0.1973  0.0245 -0.3707
    1DPPC   C4A16844   7.785  25.529   4.315 -0.0551  0.3192  0.0457
    1DPPC   C1B16845   8.494  26.112   3.714 -0.0294  0.1127  0.1029
    1DPPC   C2B16846   8.389  25.760   4.033 -0.2164  0.1938 -0.0487
    1DPPC   C3B16847   8.247  25.419   4.179  0.0689 -0.0450  0.0561
    1DPPC   C4B16848   8.030  24.962   4.258 -0.0223 -0.0144  0.2749
    1DPPC   NC316849  15.383  14.309   2.273 -0.1917 -0.0618 -0.1324
    1DPPC   PO416850  15.404  14.661   2.201  0.1159  0.2706 -0.1928
    1DPPC   GL116851  15.330  14.732   2.664  0.1936  0.2845  0.1922
    1DPPC   GL216852  15.053  14.607   2.647  0.0506 -0.1548  0.0655
    1DPPC   C1A16853  15.172  14.772   3.114  0.2802  0.0532 -0.0718
    1DPPC   C2A16854  15.391  14.769   3.597  0.0846 -0.2101 -0.1498
    1DPPC   C3A16855  15.516  14.542   3.939 -0.1850  0.1114  0.0583
    1DPPC   C4A16856  15.676  14.204   4.210  0.0138  0.0604  0.0791
    1DPPC   C1B16857  14.750  14.585   2.971 -0.1578 -0.2851 -0.2344
    1DPPC   C2B16858  14.683  14.519   3.381 -0.2869 -0.1331  0.1344
    1DPPC   C3B16859  14.733  14.409   3.875 -0.2232  0.0967  0.1354
    1DPPC   C4B16860  15.023  14.417   4.212  0.1414 -0.0577  0.1106
    1DPPC   NC316861   4.370  13.957   2.130  0.3059 -0.0426  0.0522
    1DPPC   PO416862   4.513  14.243   2.504  0.0789  0.0574 -0.0357
    1DPPC   GL116863   4.635  14.405   2.948 -0.1016  0.0738  0.1685
    1DPPC   GL216864   4.834  14.760   3.072  0.2978  0.3530 -0.1954
    1DPPC   C1A16865   4.557  14.361   3.387  0.3237 -0.2006  0.1483
    1DPPC   C2A16866   4.636  14.411   3.836  0.0749 -0.0726  0.1357
    1DPPC   C3A16867   4.630  14.241   4.144  0.2725  0.4181  0.1470
    1DPPC   C4A16868   4.907  13.988   4.434  0.0573  0.0729  0.3022
    1DPPC   C1B16869   5.091  14.827   3.443  0.1434  0.0915 -0.2069
    1DPPC   C2B16870   5.147  14.763   3.830 -0.0341  0.2053 -0.0278
    1DPPC   C3B16871   5.059  14.581   4.213  0.3590  0.1144 -0.0811
    1DPPC   C4B16872   4.955  14.593   4.612 -0.0168 -0.4079  0.4231
    1DPPC   NC316873  20.778  19.591   2.930  0.0044 -0.1371  0.0910
    1DPPC   PO416874  20.603  20.108   2.861  0.2372  0.0918  0.0162
    1DPPC   GL116875  20.305  20.097   3.259 -0.0092  0.0288 -0.2011
    1DPPC   GL216876  20.034  20.173   3.413  0.0071  0.2263 -0.2211
    1DPPC   C1A16877  20.447  20.058   3.662 -0.0699 -0.0185 -0.0114
    1DPPC   C2A16878  20.385  20.092   4.122 -0.1077  0.0139  0.3020
    1DPPC   C3A16879  20.385  19.954   4.604 -0.0977 -0.2247 -0.0006
    1DPPC   C4A16880  20.372  20.227   4.911  0.1793 -0.0472  0.0468
    1DPPC   C1B16881  20.023  19.889   3.721  0.1301 -0.2387 -0.3578
    1DPPC   C2B16882  20.010  19.781   4.138 -0.3311  0.0014 -0.1740
    1DPPC   C3B16883  19.911  19.884   4.600  0.1161 -0.0700 -0.0751
    1DPPC   C4B16884  19.627  19.806   4.794 -0.1149  0.1541 -0.0676
    1DPPC   NC316885   9.832  16.645   1.830 -0.2465  0.1149 -0.0370
    1DPPC   PO416886  10.245  16.319   1.980  0.1620  0.1520  0.1436
    1DPPC   GL116887  10.472  16.174   2.340  0.2240  0.1928  0.0376
    1DPPC   GL216888  10.464  15.918   2.659 -0.0817 -0.1870 -0.2126
    1DPPC   C1A16889  10.633  16.435   2.726 -0.0260  0.0996  0.4643
    1DPPC   C2A16890  10.628  16.493   3.171  0.1062 -0.2868 -0.0851
    1DPPC   C3A16891  10.572  16.474   3.579  0.0863  0.0229  0.1109
    1DPPC   C4A16892  10.491  16.529   4.107  0.0695 -0.1704 -0.1172
    1DPPC   C1B16893  10.284  16.192   2.982  0.1264  0.2350 -0.1398
    1DPPC   C2B16894  10.172  16.327   3.336  0.2036 -0.0730 -0.0429
    1DPPC   C3B16895  10.085  16.385   3.743 -0.1396  0.1628  0.0317
    1DPPC   C4B16896   9.973  16.474   4.208  0.1583 -0.2528  0.0934
    1DPPC   NC316897   9.791  12.019   3.093  0.1290  0.1435 -0.0948
    1DPPC   PO416898   9.591  12.401   2.918 -0.2768  0.1218 -0.3580
    1DPPC   GL116899   9.588  12.438   3.295  0.0034  0.1480 -0.3006
    1DPPC   GL216900   9.230  12.357   3.472 -0.4656 -0.1566  0.5419
    1DPPC   C1A16901   9.682  12.526   3.603 -0.3072 -0.1717 -0.0824
    1DPPC   C2A16902   9.820  12.698   3.940 -0.1351 -0.2362  0.3203
    1DPPC   C3A16903   9.966  12.913   4.252 -0.0875  0.1182  0.0758
    1DPPC   C4A16904   9.978  12.963   4.689  0.3662  0.0227 -0.0656
    1DPPC   C1B16905   9.086  12.235   3.874 -0.3673 -0.0582 -0.0479
    1DPPC   C2B16906   8.986  12.266   4.240 -0.0676 -0.3260 -0.1677
    1DPPC   C3B16907   9.101  12.391   4.610 -0.3514 -0.0216  0.3040
    1DPPC   C4B16908   8.875  12.413   4.950  0.2521 -0.0438  0.2456
    1DPPC   NC316909  17.709  11.223   1.952  0.0493 -0.1376 -0.1102
    1DPPC   PO416910  17.631  11.103   2.445  0.2063 -0.1875  0.1565
    1DPPC   GL116911  17.664  11.395   2.664 -0.0725  0.0888  0.1751
    1DPPC   GL216912  17.895  11.329   2.845  0.0978  0.1909 -0.2298
    1DPPC   C1A16913  17.593  11.893   2.737 -0.2633  0.0509  0.2433
    1DPPC   C2A16914  17.527  12.158   2.942  0.0384  0.0921  0.1872
    1DPPC   C3A16915  17.292  12.227   3.393  0.3137  0.0894 -0.3670
    1DPPC   C4A16916  17.486  12.106   3.783  0.0677 -0.0179 -0.0579
    1DPPC   C1B16917  17.834  11.346   3.284  0.0368 -0.1096  0.0078
    1DPPC   C2B16918  17.764  11.222   3.686 -0.0609  0.0395  0.0828
    1DPPC   C3B16919  17.609  11.208   4.044 -0.1284  0.0800 -0.0166
    1DPPC   C4B16920  17.305  10.898   4.182  0.0734 -0.2390  0.0659
    1DPPC   NC316921  25.206  12.624   2.370  0.0630  0.2375  0.3779
    1DPPC   PO416922  25.027  12.159   2.414  0.1836 -0.1969 -0.2430
    1DPPC   GL116923  24.783  12.350   2.697 -0.0462 -0.0737  0.0046
    1DPPC   GL216924  24.794  12.671   2.661  0.2936 -0.0915 -0.1081
    1DPPC   C1A16925  24.497  12.301   3.113 -0.1953  0.1396 -0.3637
    1DPPC   C2A16926  24.563  12.340   3.626 -0.0552 -0.0196 -0.2648
    1DPPC   C3A16927  24.402  12.386   4.105  0.1200  0.2426 -0.0766
    1DPPC   C4A16928  24.241  12.328   4.540 -0.0341  0.1155 -0.1694
    1DPPC   C1B16929  24.666  12.802   3.036  0.1369  0.1075  0.0071
    1DPPC   C2B16930  24.740  12.830   3.469  0.3175  0.0740  0.1329
    1DPPC   C3B16931  24.554  12.916   3.899  0.1967  0.1574  0.2272
    1DPPC   C4B16932  24.543  13.169   4.286 -0.2451 -0.1229 -0.1492
    1DPPC   NC316933   9.385   9.677   3.267  0.0472  0.3006  0.0665
    1DPPC   PO416934   9.233   9.260   3.267  0.1329 -0.0177 -0.1560
    1DPPC   GL116935   9.135   9.138   3.684 -0.0852 -0.0774 -0.1844
    1DPPC   GL216936   8.866   9.117   3.673 -0.0313  0.1134 -0.0361
    1DPPC   C1A16937   9.205   9.149   4.144  0.3602  0.0685 -0.0148
    1DPPC   C2A16938   9.285   9.222   4.556  0.0470  0.1298 -0.1090
    1DPPC   C3A16939   9.475   9.336   4.936 -0.1804  0.4340  0.0015
    1DPPC   C4A16940   9.437   9.510   5.269 -0.2473 -0.0576 -0.0809
    1DPPC   C1B16941   8.732   9.039   4.088  0.0448  0.0419 -0.0662
    1DPPC   C2B16942   8.796   9.131   4.555 -0.1619  0.0878 -0.0151
    1DPPC   C3B16943   8.976   9.199   4.957 -0.1936 -0.0283  0.3298
    1DPPC   C4B16944   9.196   8.889   5.270  0.0499  0.1182  0.0655
    1DPPC   NC316945  10.316  10.493   2.826  0.1733 -0.2915  0.2441
    1DPPC   PO416946  10.570  10.087   2.876 -0.0201  0.2454  0.1595
    1DPPC   GL116947  10.682  10.353   3.185  0.1252 -0.0425 -0.2285
    1DPPC   GL216948  10.771  10.644   3.283  0.0666  0.0196 -0.0744
    1DPPC   C1A16949  10.696  10.421   3.730 -0.0044  0.0008 -0.2859
    1DPPC   C2A16950  10.743  10.493   4.184  0.0860 -0.0285 -0.2245
    1DPPC   C3A16951  10.557  10.501   4.597 -0.2264 -0.2042  0.0918
    1DPPC   C4A16952  10.273  10.496   4.992  0.0352  0.0972  0.2867
    1DPPC   C1B16953  10.855  10.964   3.673 -0.0714 -0.1296  0.1136
    1DPPC   C2B16954  10.840  10.955   4.086  0.0462  0.2978 -0.0178
    1DPPC   C3B16955  10.907  10.860   4.485  0.0822 -0.1436 -0.0185
    1DPPC   C4B16956  11.029  10.598   4.877  0.2936 -0.1108 -0.2104
    1DPPC   NC316957  11.440   9.413   2.655 -0.1984  0.2124  0.0269
    1DPPC   PO416958  11.636   9.091   2.886  0.1453  0.0233 -0.1807
    1DPPC   GL116959  11.428   9.071   3.284 -0.1730  0.2549  0.1351
    1DPPC   GL216960  11.484   8.831   3.475  0.1787 -0.1118 -0.1157
    1DPPC   C1A16961  11.391   9.463   3.530  0.0889 -0.1196  0.3608
    1DPPC   C2A16962  11.549   9.532   4.033 -0.0289  0.1763  0.0579
    1DPPC   C3A16963  11.683   9.501   4.313 -0.1360  0.3090  0.0158
    1DPPC   C4A16964  11.814   9.504   4.708  0.0942  0.1736 -0.0226
    1DPPC   C1B16965  11.497   8.961   3.883  0.0263  0.0202  0.2082
    1DPPC   C2B16966  11.501   8.781   4.246 -0.0594  0.0911  0.1383
    1DPPC   C3B16967  11.630   8.553   4.646  0.1759 -0.2954  0.0750
    1DPPC   C4B16968  12.014   8.543   4.778  0.2390 -0.3917 -0.0578
    1DPPC   NC316969  14.643  13.590   2.170 -0.0455 -0.1006  0.1391
    1DPPC   PO416970  14.944  13.998   2.312  0.2620 -0.2059 -0.0783
    1DPPC   GL116971  14.872  13.806   2.580 -0.0762 -0.0708 -0.1094
    1DPPC   GL216972  14.686  13.948   2.837 -0.1355 -0.0113  0.1001
    1DPPC   C1A16973  15.135  13.686   2.957  0.0139  0.0008 -0.1410
    1DPPC   C2A16974  14.933  13.688   3.298 -0.1879  0.0583  0.2098
    1DPPC   C3A16975  14.950  13.651   3.641 -0.0825 -0.0918 -0.1597
    1DPPC   C4A16976  15.041  13.490   4.096 -0.0441  0.1894 -0.0568
    1DPPC   C1B16977  14.572  14.005   3.335 -0.2260 -0.0659 -0.1576
    1DPPC   C2B16978  14.509  14.007   3.720  0.0706  0.0237  0.3408
    1DPPC   C3B16979  14.755  13.980   4.126  0.3528  0.2145  0.0877
    1DPPC   C4B16980  14.783  13.703   4.536  0.2208  0.3474 -0.2564
    1DPPC   NC316981  22.142  13.458   2.269  0.5597  0.3288  0.1283
    1DPPC   PO416982  21.706  13.210   2.323  0.0786  0.0991  0.2092
    1DPPC   GL116983  21.771  13.509   2.639  0.4699  0.1884 -0.1849
    1DPPC   GL216984  22.017  13.710   2.663 -0.0884 -0.0082 -0.2883
    1DPPC   C1A16985  21.634  13.723   3.026 -0.2787  0.2630  0.0220
    1DPPC   C2A16986  21.289  13.622   3.284  0.1437  0.1287 -0.0595
    1DPPC   C3A16987  20.986  13.650   3.613  0.1796  0.1323 -0.1228
    1DPPC   C4A16988  20.562  13.787   3.803  0.1329 -0.1921 -0.2069
    1DPPC   C1B16989  21.880  14.114   2.787  0.0592 -0.0514  0.0871
    1DPPC   C2B16990  21.712  14.264   3.155 -0.2420  0.0643  0.0303
    1DPPC   C3B16991  21.626  14.588   3.452 -0.1423 -0.2213  0.4376
    1DPPC   C4B16992  21.403  14.487   3.766  0.3713 -0.1482  0.0360
    1DPPC   NC316993  18.584  13.537   1.627 -0.0928  0.2807 -0.3077
    1DPPC   PO416994  18.469  13.776   1.998  0.3179  0.1624 -0.3498
    1DPPC   GL116995  18.675  13.837   2.403 -0.0579 -0.3149  0.0481
    1DPPC   GL216996  18.524  13.536   2.432  0.0365 -0.0336  0.0804
    1DPPC   C1A16997  18.963  14.002   2.720  0.3646  0.0765 -0.0194
    1DPPC   C2A16998  18.912  14.002   3.169 -0.3269 -0.0734  0.2855
    1DPPC   C3A16999  18.744  13.969   3.608  0.1693 -0.2347  0.1400
    1DPPC   C4A17000  18.719  14.165   3.929 -0.3939 -0.0966  0.0823
    1DPPC   C1B17001  18.513  13.691   2.894  0.3545  0.0049 -0.0742
    1DPPC   C2B17002  18.538  13.611   3.304 -0.1252 -0.0186  0.0388
    1DPPC   C3B17003  18.677  13.406   3.682 -0.1437  0.0779 -0.2681
    1DPPC   C4B17004  18.804  13.461   4.062  0.3221  0.3168 -0.0297
    1DPPC   NC317005  15.663  25.805   3.149  0.0591  0.1018  0.0936
    1DPPC   PO417006  15.249  25.738   3.236  0.0864 -0.0544 -0.1128
    1DPPC   GL117007  15.393  25.749   3.583 -0.0945 -0.0315  0.1169
    1DPPC   GL217008  15.419  25.468   3.736  0.0444 -0.2955 -0.2051
    1DPPC   C1A17009  15.550  25.896   4.038 -0.0485 -0.0034 -0.2061
    1DPPC   C2A17010  15.792  26.040   4.393  0.2077 -0.2544  0.2532
    1DPPC   C3A17011  15.907  26.091   4.791  0.0407 -0.2781  0.0385
    1DPPC   C4A17012  16.238  26.041   5.103  0.0299  0.0844  0.0981
    1DPPC   C1B17013  15.450  25.386   4.212  0.1220 -0.0389  0.3746
    1DPPC   C2B17014  15.244  25.431   4.561 -0.2014  0.0870 -0.2038
    1DPPC   C3B17015  15.098  25.440   4.988  0.4583  0.1232  0.1778
    1DPPC   C4B17016  14.860  25.519   5.347 -0.1375 -0.2872 -0.0477
    1DPPC   NC317017  17.901  12.527   2.100  0.1351  0.0417 -0.0579
    1DPPC   PO417018  18.186  12.343   2.026 -0.0282 -0.0043 -0.4195
    1DPPC   GL117019  18.282  12.176   2.392 -0.0879  0.1342  0.2122
    1DPPC   GL217020  17.987  12.026   2.402  0.0021  0.2402  0.1680
    1DPPC   C1A17021  18.468  12.108   2.868  0.3063  0.1975 -0.3400
    1DPPC   C2A17022  18.384  12.027   3.332  0.4309 -0.3707  0.0545
    1DPPC   C3A17023  18.143  11.730   3.457  0.0394  0.1007  0.3644
    1DPPC   C4A17024  17.903  11.766   3.846 -0.0339 -0.0191 -0.3012
    1DPPC   C1B17025  17.996  12.246   2.848  0.0122 -0.2108  0.2087
    1DPPC   C2B17026  17.990  12.271   3.254 -0.0948 -0.0450  0.3002
    1DPPC   C3B17027  17.989  12.233   3.710  0.3684 -0.0148 -0.1296
    1DPPC   C4B17028  18.156  12.320   4.117  0.3244 -0.1759  0.1450
    1DPPC   NC317029   5.100  18.706   2.402  0.1459  0.2591 -0.1817
    1DPPC   PO417030   5.471  18.917   2.281 -0.0211 -0.0385  0.0378
    1DPPC   GL117031   5.601  19.149   2.619 -0.1728  0.1593 -0.1856
    1DPPC   GL217032   5.367  19.441   2.712  0.2371  0.0485 -0.1802
    1DPPC   C1A17033   5.750  19.352   2.941 -0.1438 -0.4121 -0.2649
    1DPPC   C2A17034   5.634  19.323   3.333 -0.2199 -0.1264 -0.3933
    1DPPC   C3A17035   5.605  19.126   3.742 -0.0506 -0.0294  0.0409
    1DPPC   C4A17036   5.576  18.910   4.185  0.1384  0.0968  0.0863
    1DPPC   C1B17037   5.044  19.452   3.051 -0.0505 -0.1525  0.1959
    1DPPC   C2B17038   4.585  19.546   3.269  0.2989 -0.0082 -0.2088
    1DPPC   C3B17039   4.373  19.373   3.536  0.1131 -0.2739  0.0309
    1DPPC   C4B17040   4.307  19.208   3.864 -0.1232 -0.0225  0.1550
    1DPPC   NC317041  14.055  22.019   2.155 -0.1734 -0.1960  0.1253
    1DPPC   PO417042  13.849  21.616   2.382  0.1077 -0.1092 -0.0434
    1DPPC   GL117043  13.766  21.463   2.799 -0.2167  0.2229 -0.0485
    1DPPC   GL217044  14.039  21.661   2.993 -0.0647  0.0508  0.0795
    1DPPC   C1A17045  13.633  21.344   3.166 -0.1657 -0.2354 -0.1114
    1DPPC   C2A17046  13.670  21.214   3.568 -0.0722  0.0829 -0.1178
    1DPPC   C3A17047  13.916  20.903   3.705  0.2082 -0.3341 -0.4035
    1DPPC   C4A17048  14.048  20.751   4.067 -0.0485 -0.1676  0.0473
    1DPPC   C1B17049  13.911  21.733   3.403  0.1260 -0.2944 -0.0057
    1DPPC   C2B17050  13.764  21.619   3.873 -0.1282  0.2006 -0.0032
    1DPPC   C3B17051  13.596  21.815   4.202 -0.2825  0.2150  0.2807
    1DPPC   C4B17052  13.357  22.136   4.143  0.0894  0.0983 -0.1171
    1DPPC   NC317053  20.067  17.892   2.095  0.0615 -0.1377 -0.1169
    1DPPC   PO417054  19.792  18.016   2.460 -0.0040 -0.0178 -0.0165
    1DPPC   GL117055  19.860  18.033   2.845 -0.1699 -0.1390 -0.1700
    1DPPC   GL217056  20.205  18.272   2.841  0.2374 -0.0617 -0.2249
    1DPPC   C1A17057  19.955  17.823   3.225  0.0178  0.3108  0.0511
    1DPPC   C2A17058  19.976  17.721   3.655  0.1305 -0.1498 -0.0531
    1DPPC   C3A17059  20.191  17.796   3.975  0.1621  0.5067  0.0314
    1DPPC   C4A17060  20.585  17.822   4.016  0.1374  0.2527  0.4469
    1DPPC   C1B17061  19.988  18.306   3.221 -0.0307  0.0401  0.1001
    1DPPC   C2B17062  19.965  18.227   3.659  0.1035  0.5396 -0.1077
    1DPPC   C3B17063  19.952  18.178   4.171 -0.1351 -0.0797  0.2435
    1DPPC   C4B17064  19.914  17.765   4.408  0.0628  0.1141 -0.1702
    1DPPC   NC317065  14.111  15.295   2.414  0.2267 -0.1254 -0.0136
    1DPPC   PO417066  14.555  15.239   2.175  0.1468 -0.2152  0.4449
    1DPPC   GL117067  14.536  15.018   2.668  0.0865  0.1944 -0.1497
    1DPPC   GL217068  14.834  15.090   2.846 -0.2469 -0.0126  0.3906
    1DPPC   C1A17069  14.276  15.005   3.045 -0.0941 -0.0693  0.3113
    1DPPC   C2A17070  14.355  14.866   3.432 -0.1246  0.0761  0.1490
    1DPPC   C3A17071  14.446  14.850   3.838  0.0780  0.2705  0.1757
    1DPPC   C4A17072  14.457  14.848   4.210 -0.1862 -0.1922  0.2107
    1DPPC   C1B17073  14.791  15.039   3.239 -0.0558  0.1043  0.2805
    1DPPC   C2B17074  14.846  14.954   3.548  0.0358 -0.1571  0.0092
    1DPPC   C3B17075  15.058  14.878   3.972  0.0862 -0.0603 -0.1276
    1DPPC   C4B17076  15.450  14.952   4.317  0.2423  0.1041 -0.0081
    1DPPC   NC317077  12.951  15.714   2.460  0.0384 -0.1262  0.0285
    1DPPC   PO417078  13.046  16.098   2.231  0.1531  0.1497 -0.1419
    1DPPC   GL117079  13.159  16.212   2.621  0.1144  0.1718 -0.0463
    1DPPC   GL217080  12.922  16.242   2.746  0.0316  0.1329  0.1731
    1DPPC   C1A17081  13.376  16.326   2.983  0.2013 -0.1596 -0.0167
    1DPPC   C2A17082  13.479  16.469   3.358  0.0843  0.1293 -0.1480
    1DPPC   C3A17083  13.527  16.486   3.774 -0.1530  0.2960  0.2284
    1DPPC   C4A17084  13.409  16.709   4.111  0.0394 -0.3326  0.0072
    1DPPC   C1B17085  12.912  16.456   3.112 -0.0252  0.1552  0.2799
    1DPPC   C2B17086  12.998  16.422   3.489 -0.1622 -0.1744 -0.0035
    1DPPC   C3B17087  13.059  16.291   3.894  0.1039  0.0317  0.1491
    1DPPC   C4B17088  13.266  16.304   4.374  0.0998 -0.0869 -0.2805
    1DPPC   NC317089  29.325  10.266   2.813  0.1634 -0.0600 -0.1992
    1DPPC   PO417090  29.563   9.830   2.775  0.1891 -0.2007  0.0542
    1DPPC   GL117091  29.573   9.992   3.221  0.2348 -0.0185  0.0284
    1DPPC   GL217092  29.499  10.252   3.276 -0.3719 -0.3648  0.0440
    1DPPC   C1A17093  29.596   9.966   3.703  0.0812 -0.3008  0.0931
    1DPPC   C2A17094  29.630   9.946   4.054  0.0462 -0.0750  0.0171
    1DPPC   C3A17095  29.438   9.942   4.397  0.1460 -0.2005  0.1632
    1DPPC   C4A17096  29.241  10.157   4.751  0.0875  0.1359  0.0515
    1DPPC   C1B17097  29.352  10.454   3.672  0.2666  0.1332  0.0904
    1DPPC   C2B17098  29.268  10.292   3.963  0.0091  0.1721  0.4292
    1DPPC   C3B17099  29.224  10.458   4.388 -0.1965 -0.0043 -0.0432
    1DPPC   C4B17100  29.132  10.640   4.803  0.2330  0.0587  0.0273
    1DPPC   NC317101  15.981   6.754   2.488 -0.0711 -0.0445 -0.1574
    1DPPC   PO417102  15.594   6.594   2.674  0.1235 -0.2547  0.0873
    1DPPC   GL117103  15.941   6.518   3.010  0.2388  0.0626  0.1947
    1DPPC   GL217104  16.232   6.504   3.209 -0.0788  0.2691 -0.2034
    1DPPC   C1A17105  15.808   6.595   3.493  0.1846 -0.1079 -0.0076
    1DPPC   C2A17106  15.751   6.809   3.851  0.0608  0.0283  0.3612
    1DPPC   C3A17107  15.731   6.949   4.297 -0.0535 -0.1423 -0.2974
    1DPPC   C4A17108  15.496   6.918   4.624  0.0481 -0.1859  0.0235
    1DPPC   C1B17109  16.324   6.757   3.570 -0.0007  0.0336 -0.2877
    1DPPC   C2B17110  16.189   6.760   3.999  0.0834 -0.1666  0.0013
    1DPPC   C3B17111  16.193   6.809   4.442 -0.0428  0.0688  0.0750
    1DPPC   C4B17112  16.290   6.554   4.853  0.0041  0.0922  0.2284
    1DPPC   NC317113  13.587  14.486   2.429  0.2766  0.1778  0.0509
    1DPPC   PO417114  13.315  14.795   2.527 -0.1097 -0.3369 -0.0374
    1DPPC   GL117115  13.196  14.537   2.908 -0.0377  0.0268 -0.0998
    1DPPC   GL217116  13.179  14.226   2.973 -0.1605 -0.1090  0.1787
    1DPPC   C1A17117  13.074  14.547   3.351  0.0153 -0.1093  0.2864
    1DPPC   C2A17118  13.085  14.451   3.772 -0.0076 -0.3585  0.0812
    1DPPC   C3A17119  13.164  14.252   4.067  0.2111  0.1935  0.0444
    1DPPC   C4A17120  13.262  14.264   4.485 -0.2195 -0.1124  0.1257
    1DPPC   C1B17121  13.064  13.993   3.240 -0.1967 -0.0386 -0.3284
    1DPPC   C2B17122  13.081  13.925   3.690  0.1258  0.0062 -0.0625
    1DPPC   C3B17123  12.953  13.806   4.144 -0.1016 -0.3246 -0.2266
    1DPPC   C4B17124  12.841  13.963   4.433  0.0649  0.0469 -0.0175
    1DPPC   NC317125  16.446  15.528   2.018 -0.1645  0.3080 -0.0234
    1DPPC   PO417126  16.684  15.092   2.168 -0.1662 -0.0254  0.1193
    1DPPC   GL117127  16.567  15.301   2.501 -0.0685 -0.1051 -0.0726
    1DPPC   GL217128  16.369  15.578   2.509  0.0194 -0.2051  0.1543
    1DPPC   C1A17129  16.553  15.196   2.869 -0.0070  0.0016 -0.1112
    1DPPC   C2A17130  16.625  15.285   3.256 -0.0197  0.0483  0.1355
    1DPPC   C3A17131  16.640  15.310   3.729 -0.2828  0.1775  0.0775
    1DPPC   C4A17132  16.908  15.282   4.056 -0.0022  0.3271  0.2271
    1DPPC   C1B17133  16.415  15.652   2.882 -0.2332 -0.1088  0.0287
    1DPPC   C2B17134  16.431  15.784   3.293 -0.0410  0.2070  0.1611
    1DPPC   C3B17135  16.366  15.869   3.728  0.1690  0.1628 -0.3428
    1DPPC   C4B17136  16.114  15.722   4.099  0.2041 -0.0265 -0.0439
    1DPPC   NC317137  10.302  14.149   2.521  0.1818  0.3934  0.0858
    1DPPC   PO417138  10.489  13.885   2.765 -0.0939  0.1121 -0.1375
    1DPPC   GL117139  10.791  13.836   3.074 -0.3214  0.2909  0.1951
    1DPPC   GL217140  11.018  14.142   3.074 -0.0612  0.0216  0.0254
    1DPPC   C1A17141  10.658  13.780   3.491  0.2681  0.2431 -0.1623
    1DPPC   C2A17142  10.817  13.937   3.908 -0.0371 -0.0179  0.3176
    1DPPC   C3A17143  10.855  14.058   4.341 -0.0407 -0.1928  0.2061
    1DPPC   C4A17144  11.131  14.092   4.695  0.3174 -0.0468 -0.1059
    1DPPC   C1B17145  10.950  14.212   3.450 -0.1669 -0.0728 -0.1473
    1DPPC   C2B17146  11.017  14.372   3.905  0.0157  0.0601 -0.0335
    1DPPC   C3B17147  10.815  14.541   4.213  0.0074 -0.1262  0.2345
    1DPPC   C4B17148  10.890  14.594   4.596  0.1390  0.1286 -0.0409
    1DPPC   NC317149  13.758  20.297   1.759  0.0694 -0.0517 -0.1093
    1DPPC   PO417150  13.641  20.524   2.128  0.0160 -0.1787 -0.0198
    1DPPC   GL117151  13.751  20.514   2.572 -0.3190  0.0568  0.0434
    1DPPC   GL217152  14.092  20.288   2.668  0.0397  0.0813 -0.1486
    1DPPC   C1A17153  13.717  20.445   3.015  0.2350  0.0525 -0.0158
    1DPPC   C2A17154  13.759  20.528   3.431  0.0280 -0.0786 -0.1762
    1DPPC   C3A17155  13.726  20.453   3.810  0.1057 -0.0358  0.0955
    1DPPC   C4A17156  13.849  20.354   4.226  0.0879  0.1264  0.1954
    1DPPC   C1B17157  14.235  20.507   3.005 -0.1063  0.0324 -0.0535
    1DPPC   C2B17158  14.226  20.450   3.357 -0.0347  0.0037 -0.3040
    1DPPC   C3B17159  14.225  20.393   3.781  0.0781  0.2623 -0.2484
    1DPPC   C4B17160  14.340  20.397   4.216 -0.0957 -0.0560  0.1776
    1DPPC   NC317161  13.369  19.343   2.040  0.1848 -0.1647 -0.1481
    1DPPC   PO417162  13.482  19.662   2.363  0.1774  0.1796  0.3426
    1DPPC   GL117163  13.462  19.561   2.820 -0.0903  0.1442 -0.1589
    1DPPC   GL217164  13.327  19.857   3.046 -0.0506 -0.3420 -0.1762
    1DPPC   C1A17165  13.599  19.436   3.199  0.1611  0.2252 -0.1352
    1DPPC   C2A17166  13.610  19.251   3.604  0.2831  0.1532  0.0579
    1DPPC   C3A17167  13.913  19.250   3.951  0.0408  0.0677  0.1692
    1DPPC   C4A17168  14.121  19.531   4.201 -0.2578 -0.1894  0.2296
    1DPPC   C1B17169  13.307  19.784   3.454  0.2160  0.2019  0.3457
    1DPPC   C2B17170  13.232  19.687   3.861 -0.3531  0.3090 -0.2830
    1DPPC   C3B17171  13.128  19.502   4.269 -0.0922  0.1650 -0.1512
    1DPPC   C4B17172  13.298  19.431   4.777 -0.0166  0.1343  0.1809
    1DPPC   NC317173  15.225  21.393   2.418  0.0083  0.1185  0.1262
    1DPPC   PO417174  15.392  21.028   2.619  0.0718 -0.0752  0.0690
    1DPPC   GL117175  15.313  20.850   3.102 -0.0559 -0.0783  0.0920
    1DPPC   GL217176  15.225  20.579   3.027  0.0191 -0.3380  0.1384
    1DPPC   C1A17177  15.204  21.118   3.388 -0.0083  0.2169  0.1124
    1DPPC   C2A17178  15.000  21.120   3.836  0.1595 -0.2354 -0.0550
    1DPPC   C3A17179  14.969  20.966   4.191  0.0926  0.0323  0.0801
    1DPPC   C4A17180  14.984  20.753   4.593  0.2123  0.0433 -0.1230
    1DPPC   C1B17181  15.077  20.565   3.465 -0.0181 -0.1139 -0.0376
    1DPPC   C2B17182  15.082  20.606   3.860  0.0921 -0.3251  0.2068
    1DPPC   C3B17183  14.863  20.483   4.148  0.1918  0.5132 -0.1879
    1DPPC   C4B17184  14.726  20.267   4.631  0.2692 -0.1693  0.0315
    1DPPC   NC317185  18.004  14.668   2.387 -0.2303  0.2401  0.0504
    1DPPC   PO417186  18.450  14.718   2.202  0.0705  0.3045 -0.0849
    1DPPC   GL117187  18.690  14.661   2.566  0.1626  0.1185 -0.1182
    1DPPC   GL217188  18.866  14.456   2.594 -0.0019 -0.1585 -0.0228
    1DPPC   C1A17189  18.680  14.803   2.930  0.3359  0.1858  0.0692
    1DPPC   C2A17190  18.641  14.781   3.352 -0.2685 -0.0081  0.1639
    1DPPC   C3A17191  18.606  14.626   3.693 -0.1845  0.2416  0.0160
    1DPPC   C4A17192  18.550  14.683   4.143 -0.0912  0.3873  0.1014
    1DPPC   C1B17193  18.997  14.489   3.057  0.1154  0.1890  0.1020
    1DPPC   C2B17194  19.082  14.465   3.436  0.0657  0.3955  0.0844
    1DPPC   C3B17195  19.152  14.434   3.813 -0.1297 -0.3164 -0.0354
    1DPPC   C4B17196  19.345  14.440   4.178  0.0722  0.1905  0.1680
    1DPPC   NC317197  11.504  13.538   2.477 -0.1622  0.2931  0.1432
    1DPPC   PO417198  11.256  13.164   2.684  0.0014  0.1409  0.1723
    1DPPC   GL117199  11.096  13.154   3.114  0.2338 -0.0993 -0.0842
    1DPPC   GL217200  10.782  13.284   3.189 -0.2736  0.3028 -0.0839
    1DPPC   C1A17201  11.031  13.001   3.528 -0.2476  0.0024  0.0021
    1DPPC   C2A17202  11.032  13.065   3.943  0.0033  0.0721  0.3092
    1DPPC   C3A17203  10.968  13.064   4.431  0.1048  0.2918 -0.0041
    1DPPC   C4A17204  10.861  13.100   4.812  0.1203  0.5150  0.0982
    1DPPC   C1B17205  10.608  13.302   3.596 -0.1138  0.0217 -0.0876
    1DPPC   C2B17206  10.727  13.424   3.949  0.1054 -0.0157 -0.2001
    1DPPC   C3B17207  10.770  13.514   4.373 -0.2744 -0.1179 -0.1458
    1DPPC   C4B17208  10.687  13.680   4.750  0.2594 -0.2450 -0.4513
    1DPPC   NC317209  13.800  13.782   2.664 -0.1111  0.0229 -0.0013
    1DPPC   PO417210  13.411  13.951   2.603 -0.1220  0.2624  0.1995
    1DPPC   GL117211  13.393  13.748   2.984  0.0093 -0.3046 -0.0932
    1DPPC   GL217212  13.552  13.848   3.135  0.1946 -0.0377  0.0429
    1DPPC   C1A17213  13.206  13.483   3.283 -0.0511  0.3794  0.1564
    1DPPC   C2A17214  13.271  13.417   3.713 -0.4111 -0.0223 -0.2284
    1DPPC   C3A17215  13.297  13.356   4.115 -0.2016 -0.0746 -0.0731
    1DPPC   C4A17216  13.169  13.565   4.565 -0.0767  0.4821  0.1104
    1DPPC   C1B17217  13.543  13.765   3.497 -0.0215  0.1452 -0.3266
    1DPPC   C2B17218  13.556  13.797   3.920 -0.1396  0.0911  0.3060
    1DPPC   C3B17219  13.614  13.809   4.381 -0.0126  0.2202 -0.1059
    1DPPC   C4B17220  13.933  13.852   4.729 -0.1382  0.2125  0.0430
    1DPPC   NC317221  10.684  11.366   2.741 -0.2812 -0.0199  0.0060
    1DPPC   PO417222  10.211  11.447   2.922 -0.0067 -0.1685 -0.0506
    1DPPC   GL117223   9.996  11.349   3.233  0.1057  0.0578  0.0565
    1DPPC   GL217224   9.929  11.575   3.382 -0.0413  0.2298 -0.0346
    1DPPC   C1A17225   9.947  11.159   3.620 -0.0345  0.2701 -0.0288
    1DPPC   C2A17226  10.003  11.208   4.006 -0.1014  0.1743  0.1934
    1DPPC   C3A17227  10.006  11.186   4.435 -0.0421 -0.3378 -0.2862
    1DPPC   C4A17228   9.948  11.361   4.795 -0.0835  0.0855 -0.0240
    1DPPC   C1B17229  10.005  11.677   3.858 -0.0478 -0.0029 -0.1370
    1DPPC   C2B17230  10.001  11.820   4.259  0.2758  0.1715  0.0131
    1DPPC   C3B17231   9.986  12.052   4.629 -0.2056 -0.1042  0.0718
    1DPPC   C4B17232  10.071  12.060   5.033 -0.1359 -0.0385  0.0671
    1DPPC   NC317233  15.013  16.364   2.231 -0.1679  0.0623 -0.1820
    1DPPC   PO417234  15.360  16.522   2.337 -0.1710  0.3062 -0.5566
    1DPPC   GL117235  15.524  16.467   2.743  0.2259  0.2998 -0.0174
    1DPPC   GL217236  15.444  16.727   2.800  0.2266  0.0335  0.0285
    1DPPC   C1A17237  15.751  16.387   3.088  0.2555  0.0766  0.0635
    1DPPC   C2A17238  15.757  16.367   3.422  0.0167  0.1772 -0.1390
    1DPPC   C3A17239  15.588  16.457   3.820 -0.4338 -0.1071 -0.5184
    1DPPC   C4A17240  15.539  16.511   4.215 -0.1720  0.0719 -0.1075
    1DPPC   C1B17241  15.504  16.803   3.288 -0.2076 -0.1520  0.0723
    1DPPC   C2B17242  15.701  16.902   3.602 -0.3367 -0.0785 -0.0028
    1DPPC   C3B17243  15.669  16.935   4.020  0.0305  0.3500  0.2064
    1DPPC   C4B17244  15.991  16.996   4.209 -0.0808 -0.3446 -0.1286
    1DPPC   NC317245  15.599  13.452   2.108 -0.1877  0.1642  0.0844
    1DPPC   PO417246  15.117  13.478   2.077 -0.0680  0.0672  0.3762
    1DPPC   GL117247  15.163  13.221   2.495 -0.2792 -0.0050  0.0166
    1DPPC   GL217248  14.851  13.318   2.741 -0.0835  0.0324  0.1164
    1DPPC   C1A17249  15.278  13.069   2.886 -0.0811 -0.3970 -0.0902
    1DPPC   C2A17250  15.226  12.966   3.295 -0.0389  0.0115  0.3887
    1DPPC   C3A17251  15.179  12.775   3.712 -0.0169 -0.0581  0.2067
    1DPPC   C4A17252  15.017  12.580   4.016  0.1739  0.1573  0.0163
    1DPPC   C1B17253  14.802  13.215   3.137  0.0472 -0.1893 -0.0575
    1DPPC   C2B17254  14.882  13.148   3.572  0.0892  0.0807 -0.1739
    1DPPC   C3B17255  14.833  13.072   3.949 -0.0907 -0.2013 -0.2061
    1DPPC   C4B17256  14.785  13.081   4.375 -0.0805 -0.1021 -0.3927
    1DPPC   NC317257  17.914  19.352   2.315 -0.0612 -0.0216  0.2315
    1DPPC   PO417258  18.105  18.982   2.547  0.0905  0.1205 -0.1223
    1DPPC   GL117259  18.067  18.787   2.991  0.1711  0.2566  0.0082
    1DPPC   GL217260  18.467  18.625   3.125 -0.2065 -0.0210  0.0200
    1DPPC   C1A17261  18.162  18.893   3.454  0.1282 -0.1158  0.0502
    1DPPC   C2A17262  18.199  18.818   3.837 -0.1939 -0.2535 -0.1607
    1DPPC   C3A17263  18.058  18.773   4.274 -0.3288  0.2350 -0.1323
    1DPPC   C4A17264  18.042  18.790   4.674  0.1951  0.0998 -0.1500
    1DPPC   C1B17265  18.673  18.546   3.505 -0.2004  0.1787 -0.0300
    1DPPC   C2B17266  18.656  18.574   3.964  0.3606 -0.2424 -0.0786
    1DPPC   C3B17267  18.518  18.549   4.378 -0.0417  0.2700  0.1349
    1DPPC   C4B17268  18.520  18.445   4.811  0.0894 -0.0825  0.0082
    1DPPC   NC317269  10.006  17.714   1.823  0.0266 -0.1726 -0.0284
    1DPPC   PO417270   9.898  17.784   2.236  0.1599  0.1525 -0.2298
    1DPPC   GL117271   9.937  17.674   2.679 -0.3356  0.1939 -0.1835
    1DPPC   GL217272   9.628  17.666   2.787  0.1001  0.0209 -0.1789
    1DPPC   C1A17273   9.989  17.829   3.128 -0.2184  0.0643  0.1795
    1DPPC   C2A17274   9.843  17.859   3.491  0.0216  0.0698 -0.0250
    1DPPC   C3A17275   9.703  17.791   3.865 -0.0433 -0.0597 -0.1336
    1DPPC   C4A17276   9.546  17.695   4.255 -0.3001 -0.1414  0.0447
    1DPPC   C1B17277   9.427  17.808   3.120 -0.2811 -0.2134 -0.1083
    1DPPC   C2B17278   9.340  17.812   3.529  0.0348  0.0154 -0.0180
    1DPPC   C3B17279   9.167  17.647   3.846 -0.1121 -0.0034 -0.1752
    1DPPC   C4B17280   9.005  17.609   4.222 -0.1261 -0.0675  0.0580
    1DPPC   NC317281  11.569  19.825   2.259 -0.1399 -0.1919 -0.0519
    1DPPC   PO417282  11.567  19.330   2.294  0.1885  0.1191  0.1477
    1DPPC   GL117283  11.493  19.408   2.648 -0.0275  0.2326  0.1699
    1DPPC   GL217284  11.547  19.719   2.770 -0.1492  0.0109  0.1151
    1DPPC   C1A17285  11.290  19.224   2.990  0.1730  0.0088 -0.2137
    1DPPC   C2A17286  11.077  19.232   3.380  0.0286 -0.0284 -0.0759
    1DPPC   C3A17287  11.094  19.033   3.806  0.0002  0.1669 -0.2438
    1DPPC   C4A17288  11.032  19.218   4.169 -0.4779  0.0381  0.1453
    1DPPC   C1B17289  11.648  19.641   3.158 -0.0901 -0.1010  0.1643
    1DPPC   C2B17290  11.516  19.389   3.548  0.1148 -0.1337  0.3005
    1DPPC   C3B17291  11.528  19.305   4.001  0.0914  0.1334  0.1344
    1DPPC   C4B17292  11.375  19.395   4.466 -0.2468  0.1077 -0.0740
    1DPPC   NC317293  11.149  17.166   1.789 -0.1860  0.2924  0.2659
    1DPPC   PO417294  11.025  16.709   1.901  0.1269 -0.0531  0.0598
    1DPPC   GL117295  10.980  16.756   2.369 -0.1321  0.0336 -0.2168
    1DPPC   GL217296  11.021  16.364   2.368  0.2095  0.2911  0.1657
    1DPPC   C1A17297  10.906  17.014   2.716 -0.2280  0.1551  0.2271
    1DPPC   C2A17298  10.794  16.979   3.153 -0.0885  0.1666 -0.0381
    1DPPC   C3A17299  10.753  17.013   3.579  0.0165  0.1423  0.1889
    1DPPC   C4A17300  10.693  16.960   3.908 -0.0943 -0.0322 -0.3089
    1DPPC   C1B17301  11.129  16.466   2.777  0.0399 -0.0514 -0.0202
    1DPPC   C2B17302  11.160  16.538   3.222 -0.3731 -0.2119 -0.0006
    1DPPC   C3B17303  11.027  16.640   3.711 -0.2476  0.2037 -0.0907
    1DPPC   C4B17304  11.073  16.695   4.132 -0.0812  0.1280 -0.0226
    1DPPC   NC317305  15.187  12.105   1.911  0.1301 -0.1876  0.3227
    1DPPC   PO417306  15.506  12.030   2.060  0.2111  0.0296 -0.0888
    1DPPC   GL117307  15.330  12.175   2.427 -0.1017 -0.1418  0.2330
    1DPPC   GL217308  15.276  11.963   2.663  0.0961 -0.0395 -0.0937
    1DPPC   C1A17309  15.244  12.468   2.641  0.1381 -0.0054  0.1941
    1DPPC   C2A17310  15.320  12.591   2.958  0.0435 -0.1582  0.1426
    1DPPC   C3A17311  15.335  12.479   3.390 -0.2539  0.3799 -0.0396
    1DPPC   C4A17312  15.359  12.258   3.809 -0.2267 -0.0022  0.2150
    1DPPC   C1B17313  15.317  12.044   3.066  0.0381  0.0042  0.0370
    1DPPC   C2B17314  15.464  11.882   3.438  0.2506 -0.3384  0.0028
    1DPPC   C3B17315  15.714  11.799   3.797 -0.3251 -0.0451  0.1678
    1DPPC   C4B17316  15.698  11.957   4.198 -0.3230  0.3957 -0.3508
    1DPPC   NC317317  15.819  13.862   2.240 -0.1599 -0.0273  0.0332
    1DPPC   PO417318  16.098  13.554   2.035  0.0760 -0.1318 -0.1917
    1DPPC   GL117319  16.170  13.506   2.484 -0.1057  0.3794  0.0255
    1DPPC   GL217320  15.835  13.393   2.546 -0.4692 -0.1039  0.1565
    1DPPC   C1A17321  16.119  13.652   2.943 -0.0381  0.0499 -0.0817
    1DPPC   C2A17322  16.094  13.592   3.347  0.0084  0.0424 -0.0390
    1DPPC   C3A17323  15.943  13.424   3.776  0.1587 -0.3669 -0.3946
    1DPPC   C4A17324  15.850  13.144   4.084  0.0891  0.2118 -0.1993
    1DPPC   C1B17325  15.596  13.483   2.880 -0.1774  0.0903 -0.1066
    1DPPC   C2B17326  15.428  13.405   3.262  0.0608 -0.0557  0.0648
    1DPPC   C3B17327  15.401  13.274   3.758  0.1622 -0.0784 -0.1703
    1DPPC   C4B17328  15.303  12.947   4.138 -0.2032 -0.1417  0.0920
    1DPPC   NC317329  16.553  11.847   2.271  0.0563  0.1550  0.0748
    1DPPC   PO417330  16.891  11.625   2.353  0.1530  0.1431  0.0011
    1DPPC   GL117331  16.681  11.574   2.723 -0.0799 -0.0209  0.1634
    1DPPC   GL217332  16.513  11.769   2.810  0.0986 -0.2452 -0.0644
    1DPPC   C1A17333  16.900  11.315   3.106  0.0404  0.1054  0.3242
    1DPPC   C2A17334  17.163  11.270   3.459  0.1500  0.2250 -0.0025
    1DPPC   C3A17335  17.140  11.368   3.926  0.3918  0.2140  0.0131
    1DPPC   C4A17336  17.362  11.690   4.059 -0.0205  0.0425  0.1639
    1DPPC   C1B17337  16.499  11.609   3.180  0.1175 -0.0884 -0.2069
    1DPPC   C2B17338  16.667  11.459   3.576  0.0168  0.0300  0.1005
    1DPPC   C3B17339  16.599  11.223   3.796 -0.0891  0.2008 -0.1543
    1DPPC   C4B17340  16.831  11.017   4.156  0.0178 -0.0600  0.2977
    1DPPC   NC317341  12.340  20.343   2.353 -0.2518  0.0460 -0.0850
    1DPPC   PO417342  12.389  20.732   2.268  0.2071 -0.1958 -0.1238
    1DPPC   GL117343  12.342  20.878   2.628  0.1875  0.0813  0.0237
    1DPPC   GL217344  12.176  20.566   2.722 -0.0133 -0.0551 -0.0986
    1DPPC   C1A17345  12.196  20.994   3.053  0.1656 -0.0396  0.2575
    1DPPC   C2A17346  12.006  20.841   3.430  0.0007  0.1418 -0.0342
    1DPPC   C3A17347  11.781  20.851   3.848 -0.1293  0.0220  0.0621
    1DPPC   C4A17348  11.592  21.025   4.156  0.1133  0.1798  0.0373
    1DPPC   C1B17349  12.322  20.529   3.048  0.0236  0.1906  0.4264
    1DPPC   C2B17350  12.418  20.599   3.448  0.0618 -0.1114  0.0215
    1DPPC   C3B17351  12.382  20.553   3.866  0.1424  0.2076  0.0665
    1DPPC   C4B17352  12.372  20.468   4.270 -0.0101  0.1347 -0.1164
    1DPPC   NC317353  19.333  17.837   2.324  0.0015  0.1007 -0.2371
    1DPPC   PO417354  19.112  17.479   2.106 -0.3574 -0.0542  0.0105
    1DPPC   GL117355  19.105  17.409   2.567  0.2163 -0.0233  0.0664
    1DPPC   GL217356  18.863  17.689   2.805  0.0290 -0.1803  0.0155
    1DPPC   C1A17357  19.029  17.241   2.989  0.1253  0.2672  0.1225
    1DPPC   C2A17358  19.022  17.247   3.385  0.1302  0.6396 -0.1910
    1DPPC   C3A17359  19.109  17.239   3.774 -0.1726  0.0608  0.1717
    1DPPC   C4A17360  19.185  17.145   4.176  0.2797 -0.3506 -0.1126
    1DPPC   C1B17361  19.125  17.696   3.153 -0.4223  0.1270  0.2596
    1DPPC   C2B17362  19.187  17.720   3.620  0.0084 -0.1713  0.3358
    1DPPC   C3B17363  19.002  17.628   4.140 -0.0223  0.1767  0.4555
    1DPPC   C4B17364  18.996  17.728   4.601 -0.0503 -0.0905  0.0228
    1DPPC   NC317365  11.748  15.201   2.207  0.1891 -0.2102 -0.2349
    1DPPC   PO417366  12.088  15.390   2.481 -0.2040  0.1053 -0.2614
    1DPPC   GL117367  12.099  15.278   2.883  0.0335 -0.1764 -0.2542
    1DPPC   GL217368  12.024  15.098   3.128 -0.0536  0.0813 -0.3003
    1DPPC   C1A17369  12.513  15.137   3.154 -0.1119  0.0446  0.1477
    1DPPC   C2A17370  12.536  15.210   3.603 -0.1625 -0.2363  0.0156
    1DPPC   C3A17371  12.684  15.275   4.053  0.1287  0.0773 -0.2116
    1DPPC   C4A17372  12.556  15.024   4.418 -0.2563 -0.1153 -0.0273
    1DPPC   C1B17373  12.062  15.219   3.441 -0.2565 -0.3281  0.1936
    1DPPC   C2B17374  12.118  15.121   3.830  0.2177 -0.0267  0.1541
    1DPPC   C3B17375  12.153  15.143   4.160  0.0864  0.1283  0.0803
    1DPPC   C4B17376  12.075  15.014   4.536 -0.0582  0.0008 -0.1884
    1DPPC   NC317377  18.691  12.019   2.098 -0.1723  0.2759 -0.0724
    1DPPC   PO417378  19.208  12.069   2.129 -0.0649  0.1914 -0.1095
    1DPPC   GL117379  19.191  11.947   2.515 -0.1291 -0.0605 -0.1473
    1DPPC   GL217380  18.896  12.093   2.640 -0.0169 -0.1983 -0.1724
    1DPPC   C1A17381  19.430  12.025   2.843 -0.4692 -0.1050 -0.0348
    1DPPC   C2A17382  19.435  12.088   3.276 -0.1271 -0.0757 -0.1524
    1DPPC   C3A17383  19.464  12.011   3.642 -0.1050  0.2679  0.0822
    1DPPC   C4A17384  19.627  11.745   3.862  0.1611 -0.1279  0.3876
    1DPPC   C1B17385  18.948  12.111   3.042  0.2178 -0.1797 -0.0838
    1DPPC   C2B17386  18.948  12.009   3.448  0.1149 -0.1224  0.0217
    1DPPC   C3B17387  19.013  11.856   3.905 -0.0821 -0.0740  0.2749
    1DPPC   C4B17388  19.364  11.836   4.260 -0.2532 -0.0791  0.0620
    1DPPC   NC317389  20.933  11.258   2.227 -0.0962 -0.0416  0.2035
    1DPPC   PO417390  20.946  11.590   1.963  0.4744  0.0989 -0.0093
    1DPPC   GL117391  20.797  11.768   2.365  0.0484 -0.0861  0.0887
    1DPPC   GL217392  20.664  12.134   2.406  0.0858  0.0081 -0.0111
    1DPPC   C1A17393  20.923  11.723   2.833 -0.2094 -0.3078 -0.1614
    1DPPC   C2A17394  20.948  11.714   3.249  0.1472 -0.1056  0.0444
    1DPPC   C3A17395  20.770  11.621   3.635  0.0465 -0.0461 -0.1101
    1DPPC   C4A17396  20.545  11.441   3.984 -0.1487  0.0221 -0.2882
    1DPPC   C1B17397  20.600  12.127   2.804  0.1424  0.0865  0.1630
    1DPPC   C2B17398  20.642  12.090   3.260  0.1016  0.1453  0.1717
    1DPPC   C3B17399  20.602  12.233   3.638 -0.0652  0.1984 -0.0342
    1DPPC   C4B17400  20.601  11.968   4.008 -0.1334 -0.0862 -0.0393
    1DPPC   NC317401  10.974  18.019   2.054  0.0946  0.3828 -0.1916
    1DPPC   PO417402  11.322  18.392   2.120  0.0435  0.0268  0.1782
    1DPPC   GL117403  11.575  18.562   2.504  0.0873 -0.1357 -0.0436
    1DPPC   GL217404  11.467  18.864   2.514 -0.0995  0.1915 -0.1442
    1DPPC   C1A17405  11.668  18.352   2.957 -0.2367  0.0830 -0.1888
    1DPPC   C2A17406  11.725  18.310   3.401  0.2865  0.1776  0.0098
    1DPPC   C3A17407  11.849  18.283   3.847  0.1190 -0.0079 -0.0017
    1DPPC   C4A17408  11.915  18.303   4.403 -0.0707  0.1013  0.0343
    1DPPC   C1B17409  11.714  18.956   2.815  0.1915  0.0921  0.0181
    1DPPC   C2B17410  11.556  18.868   3.103  0.1651  0.0191  0.2177
    1DPPC   C3B17411  11.550  18.877   3.546  0.0230 -0.1169  0.2169
    1DPPC   C4B17412  11.581  18.667   3.786 -0.2463  0.4043  0.1531
    1DPPC   NC317413  28.880   0.160   2.679  0.1553 -0.0093 -0.2324
    1DPPC   PO417414  28.725  -0.331   2.952 -0.0729 -0.1924 -0.1952
    1DPPC   GL117415  28.854  -0.501   3.296  0.0289 -0.0569 -0.1518
    1DPPC   GL217416  29.128  -0.679   3.452 -0.1502  0.0478  0.0836
    1DPPC   C1A17417  28.636  -0.553   3.682  0.1256  0.0785 -0.2092
    1DPPC   C2A17418  28.633  -0.795   4.158 -0.0125  0.0768  0.1285
    1DPPC   C3A17419  28.971  -0.715   4.453  0.0624 -0.1021 -0.1348
    1DPPC   C4A17420  28.958  -0.429   4.746 -0.1012  0.5062  0.2146
    1DPPC   C1B17421  29.007  -0.131   3.668  0.0534 -0.0341  0.2512
    1DPPC   C2B17422  28.666  -0.009   3.617  0.0617 -0.0272 -0.3285
    1DPPC   C3B17423  28.350   0.113   3.814 -0.0055 -0.0183  0.1851
    1DPPC   C4B17424  28.408   0.253   4.309 -0.5599  0.2808  0.1058
    1DPPC   NC317425  15.898  14.737   2.054  0.1755 -0.1372 -0.1819
    1DPPC   PO417426  16.130  14.425   2.153  0.0664 -0.2102 -0.0467
    1DPPC   GL117427  16.042  14.309   2.556 -0.3084 -0.3548  0.1786
    1DPPC   GL217428  15.736  14.402   2.628  0.0604  0.0379 -0.0862
    1DPPC   C1A17429  16.098  14.262   3.042 -0.0429  0.0968 -0.3006
    1DPPC   C2A17430  16.125  14.105   3.423 -0.0204  0.2130  0.0157
    1DPPC   C3A17431  15.972  13.975   3.839  0.2281  0.0659  0.1417
    1DPPC   C4A17432  15.936  13.714   4.243  0.0086  0.0782 -0.0210
    1DPPC   C1B17433  15.641  14.477   2.959 -0.0714 -0.0556 -0.1666
    1DPPC   C2B17434  15.653  14.390   3.318 -0.0016  0.1831  0.0352
    1DPPC   C3B17435  15.855  14.581   3.619  0.2885  0.0480 -0.1950
    1DPPC   C4B17436  16.103  14.445   3.982  0.1024 -0.0234  0.0388
    1DPPC   NC317437  12.356  14.455   2.553 -0.1942  0.0739 -0.0439
    1DPPC   PO417438  12.275  14.005   2.620  0.1999 -0.1429 -0.0002
    1DPPC   GL117439  12.524  14.060   3.084 -0.2310 -0.1847 -0.0635
    1DPPC   GL217440  12.267  13.836   3.253 -0.1818 -0.1114  0.0566
    1DPPC   C1A17441  12.629  14.142   3.560  0.0895 -0.0840  0.1169
    1DPPC   C2A17442  12.618  14.184   4.016 -0.0542  0.2894 -0.1001
    1DPPC   C3A17443  12.783  14.524   4.281  0.0618 -0.1459  0.0238
    1DPPC   C4A17444  12.844  14.631   4.751  0.2110  0.0136  0.1213
    1DPPC   C1B17445  12.299  13.807   3.685 -0.3939  0.1467  0.0110
    1DPPC   C2B17446  12.488  13.745   4.048 -0.2478  0.0963  0.1002
    1DPPC   C3B17447  12.461  13.679   4.543 -0.0246 -0.0857  0.1204
    1DPPC   C4B17448  12.693  13.641   4.781 -0.0349 -0.0400 -0.3065
    1DPPC   NC317449  12.072  17.005   1.769 -0.2547  0.1309 -0.3418
    1DPPC   PO417450  12.197  17.300   2.051 -0.0218 -0.2029  0.0091
    1DPPC   GL117451  12.076  17.415   2.410 -0.0274 -0.5292  0.1376
    1DPPC   GL217452  12.230  17.677   2.655 -0.0904  0.0667  0.0500
    1DPPC   C1A17453  11.848  17.355   2.748 -0.0893  0.0067 -0.2564
    1DPPC   C2A17454  11.775  17.238   3.137 -0.1647 -0.1168  0.0426
    1DPPC   C3A17455  11.715  17.206   3.572 -0.0920  0.4368  0.2780
    1DPPC   C4A17456  11.629  17.381   3.963 -0.1108  0.1870 -0.1434
    1DPPC   C1B17457  12.496  17.849   3.046  0.1130  0.0671  0.1752
    1DPPC   C2B17458  12.635  17.802   3.530 -0.1542 -0.0719 -0.0876
    1DPPC   C3B17459  12.657  17.616   3.920  0.1354 -0.1007  0.0433
    1DPPC   C4B17460  12.593  17.417   4.317  0.1544 -0.0051 -0.1762
    1DPPC   NC317461  14.983  18.192   1.820 -0.0821  0.0631 -0.0625
    1DPPC   PO417462  15.165  17.948   2.188  0.0683 -0.0793  0.0802
    1DPPC   GL117463  14.997  17.899   2.567  0.0485 -0.0552  0.0336
    1DPPC   GL217464  15.236  17.813   2.693  0.3639 -0.2182 -0.1451
    1DPPC   C1A17465  14.764  18.173   2.783 -0.1043  0.0047  0.0776
    1DPPC   C2A17466  14.721  18.184   3.283 -0.1313  0.2340 -0.0531
    1DPPC   C3A17467  14.762  18.123   3.683 -0.0631 -0.0336  0.0527
    1DPPC   C4A17468  14.486  18.019   3.990  0.0012 -0.0490 -0.1251
    1DPPC   C1B17469  14.988  17.807   3.067 -0.1117 -0.2766  0.0538
    1DPPC   C2B17470  14.982  17.705   3.533 -0.2361  0.0479 -0.0198
    1DPPC   C3B17471  14.896  17.694   3.931  0.0627 -0.1662 -0.1183
    1DPPC   C4B17472  14.659  17.524   4.251  0.1830 -0.3244 -0.0059
    1DPPC   NC317473  15.555  10.853   2.449 -0.1395 -0.2250 -0.0168
    1DPPC   PO417474  15.857  11.210   2.570  0.1548  0.1123  0.0878
    1DPPC   GL117475  15.889  10.917   2.880 -0.2673 -0.1197  0.2712
    1DPPC   GL217476  15.568  10.989   3.079 -0.0383  0.3011  0.4820
    1DPPC   C1A17477  16.130  10.643   3.134 -0.0029  0.0304  0.0405
    1DPPC   C2A17478  16.178  10.775   3.546 -0.2471  0.2651 -0.0939
    1DPPC   C3A17479  16.330  10.819   3.924 -0.0406  0.0787 -0.0727
    1DPPC   C4A17480  16.423  10.787   4.392 -0.2552 -0.2858  0.0648
    1DPPC   C1B17481  15.695  10.807   3.426 -0.1494 -0.0128 -0.1919
    1DPPC   C2B17482  15.814  10.679   3.885 -0.0024  0.1193 -0.1009
    1DPPC   C3B17483  15.917  10.934   4.284 -0.3140  0.0131 -0.1965
    1DPPC   C4B17484  16.277  11.220   4.301  0.0305 -0.0170 -0.1499
    1DPPC   NC317485  12.600   7.820   3.166  0.0553  0.1864  0.1056
    1DPPC   PO417486  13.059   7.839   3.168 -0.3082 -0.0451  0.2036
    1DPPC   GL117487  13.038   7.947   3.593 -0.4429 -0.1256  0.1632
    1DPPC   GL217488  12.794   8.162   3.565  0.0745 -0.0643  0.0741
    1DPPC   C1A17489  13.057   7.839   3.944 -0.2410 -0.0144 -0.1653
    1DPPC   C2A17490  13.120   7.627   4.281 -0.1367  0.0072 -0.2131
    1DPPC   C3A17491  12.980   7.573   4.722  0.1406 -0.1462  0.3763
    1DPPC   C4A17492  13.133   7.264   4.978  0.1124 -0.1093 -0.1433
    1DPPC   C1B17493  12.648   8.234   3.971 -0.2514 -0.2248  0.0811
    1DPPC   C2B17494  12.504   8.347   4.360 -0.1486 -0.2190  0.0279
    1DPPC   C3B17495  12.536   8.247   4.763 -0.0043 -0.1776  0.0075
    1DPPC   C4B17496  12.227   8.155   5.043 -0.1132  0.1216  0.4185
    1DPPC   NC317497   9.209  12.689   3.042 -0.3381  0.0176 -0.0172
    1DPPC   PO417498   8.926  12.543   2.851  0.0458  0.0845  0.1667
    1DPPC   GL117499   8.739  12.759   3.176 -0.2064  0.0896  0.0075
    1DPPC   GL217500   8.356  12.741   3.372  0.0279  0.1182 -0.0938
    1DPPC   C1A17501   8.805  12.635   3.663  0.0400  0.0175  0.0887
    1DPPC   C2A17502   8.662  12.469   3.939 -0.3761  0.0736  0.1130
    1DPPC   C3A17503   8.466  12.481   4.372  0.2103  0.0005 -0.1688
    1DPPC   C4A17504   8.394  12.435   4.787  0.0159 -0.0565 -0.1269
    1DPPC   C1B17505   8.460  12.953   3.695 -0.0244 -0.1684 -0.2321
    1DPPC   C2B17506   8.677  12.926   4.115  0.2950  0.0699 -0.1935
    1DPPC   C3B17507   8.847  12.777   4.449  0.2461 -0.0801 -0.2420
    1DPPC   C4B17508   8.779  12.895   4.832 -0.0606 -0.1309 -0.4139
    1DPPC   NC317509   8.266  17.007   2.066 -0.2434 -0.0326  0.1222
    1DPPC   PO417510   7.915  16.705   2.336 -0.1180  0.1286 -0.3840
    1DPPC   GL117511   7.981  16.534   2.814  0.2468 -0.0500 -0.1646
    1DPPC   GL217512   8.170  16.217   2.789  0.2196 -0.2376  0.0813
    1DPPC   C1A17513   8.023  16.475   3.285 -0.0129 -0.1139 -0.0950
    1DPPC   C2A17514   7.786  16.389   3.624 -0.0474 -0.0391  0.3497
    1DPPC   C3A17515   7.657  16.244   3.990  0.2297  0.0006  0.0498
    1DPPC   C4A17516   7.487  16.079   4.402 -0.2554  0.3675 -0.3035
    1DPPC   C1B17517   8.408  16.165   3.226  0.0800  0.1492 -0.3235
    1DPPC   C2B17518   8.403  16.195   3.656 -0.0828  0.0116  0.0887
    1DPPC   C3B17519   8.149  16.097   3.914 -0.1508  0.5316  0.1581
    1DPPC   C4B17520   7.816  15.779   4.040  0.0322  0.0755  0.1411
    1DPPC   NC317521  11.512  16.571   2.080  0.0344  0.0495  0.2023
    1DPPC   PO417522  11.691  16.114   2.067  0.1761  0.1977 -0.1587
    1DPPC   GL117523  11.528  16.171   2.460  0.1184 -0.2446  0.1001
    1DPPC   GL217524  11.727  16.490   2.578 -0.0020 -0.1939  0.0913
    1DPPC   C1A17525  11.438  16.079   2.820  0.0083  0.0468 -0.0275
    1DPPC   C2A17526  11.460  16.163   3.244 -0.2637  0.1601  0.1793
    1DPPC   C3A17527  11.371  16.147   3.599 -0.1722 -0.1720 -0.0666
    1DPPC   C4A17528  11.429  16.320   3.965  0.0619 -0.1912 -0.1998
    1DPPC   C1B17529  11.685  16.490   2.981  0.1376 -0.3222 -0.0672
    1DPPC   C2B17530  11.661  16.657   3.507  0.0439 -0.0501 -0.0717
    1DPPC   C3B17531  11.562  16.790   3.843 -0.0218  0.2774 -0.0883
    1DPPC   C4B17532  11.536  16.994   4.259 -0.0508  0.1871 -0.1083
    1DPPC   NC317533  17.369  13.165   2.025  0.0836  0.1217 -0.0551
    1DPPC   PO417534  17.508  12.755   2.192  0.0134  0.4486  0.1270
    1DPPC   GL117535  17.551  12.834   2.587  0.4610 -0.0671 -0.0631
    1DPPC   GL217536  17.831  12.649   2.577  0.0640  0.3092 -0.0542
    1DPPC   C1A17537  17.607  12.680   2.999  0.1477  0.1168  0.1223
    1DPPC   C2A17538  17.683  12.588   3.453  0.0526 -0.0229  0.1241
    1DPPC   C3A17539  17.739  12.560   3.969 -0.0569 -0.1197 -0.0309
    1DPPC   C4A17540  17.668  12.179   4.269  0.0655  0.1161  0.0782
    1DPPC   C1B17541  18.117  12.755   2.827 -0.0932 -0.0336  0.0320
    1DPPC   C2B17542  18.094  12.831   3.267 -0.1762  0.0231 -0.1235
    1DPPC   C3B17543  18.008  12.847   3.699  0.0131 -0.1244 -0.0109
    1DPPC   C4B17544  18.059  12.889   4.104  0.0715 -0.1232  0.1778
    1DPPC   NC317545  17.354  20.363   3.074  0.2970 -0.3426  0.1106
    1DPPC   PO417546  17.806  20.387   3.084 -0.1614  0.0076 -0.3767
    1DPPC   GL117547  17.676  20.273   3.452  0.2859 -0.0974 -0.2698
    1DPPC   GL217548  17.506  19.958   3.430 -0.1633  0.1488  0.2630
    1DPPC   C1A17549  17.692  20.137   3.920  0.1942  0.4079  0.2081
    1DPPC   C2A17550  17.636  20.059   4.345 -0.0342  0.0770 -0.3698
    1DPPC   C3A17551  17.373  20.072   4.671 -0.1777 -0.1475  0.0728
    1DPPC   C4A17552  17.312  20.279   5.076  0.0979  0.2368  0.0956
    1DPPC   C1B17553  17.746  19.735   3.631  0.1367 -0.1928  0.0315
    1DPPC   C2B17554  17.699  19.587   4.051 -0.3050  0.2340  0.3009
    1DPPC   C3B17555  17.618  19.563   4.436 -0.0298 -0.1296 -0.0244
    1DPPC   C4B17556  17.530  19.521   4.863  0.0647  0.2394 -0.0148
    1DPPC   NC317557  16.158   0.785   3.071 -0.0894 -0.0070 -0.2594
    1DPPC   PO417558  16.524   0.978   3.212 -0.2689  0.1573 -0.0704
    1DPPC   GL117559  16.404   1.006   3.546 -0.0135  0.2370  0.0722
    1DPPC   GL217560  16.169   1.298   3.610 -0.0745  0.0329  0.0715
    1DPPC   C1A17561  16.376   0.864   3.947  0.3824 -0.2203 -0.0976
    1DPPC   C2A17562  16.420   0.690   4.404  0.1747  0.0134  0.0934
    1DPPC   C3A17563  16.757   0.416   4.394 -0.0390 -0.0659 -0.1218
    1DPPC   C4A17564  16.936   0.015   4.493  0.3101 -0.2031 -0.1075
    1DPPC   C1B17565  16.531   1.393   3.822  0.0244  0.0487  0.1081
    1DPPC   C2B17566  16.859   1.653   4.129  0.4282 -0.2553  0.0926
    1DPPC   C3B17567  16.878   1.770   4.407 -0.0181 -0.1530 -0.1442
    1DPPC   C4B17568  17.004   2.134   4.330 -0.0372  0.0709 -0.0163
    1DPPC   NC317569  10.802   9.237   2.970  0.1052  0.1652 -0.1616
    1DPPC   PO417570  10.757   9.608   2.964  0.0640 -0.0286  0.0454
    1DPPC   GL117571  10.798   9.450   3.421  0.0334 -0.1738 -0.2410
    1DPPC   GL217572  10.911   9.159   3.441 -0.0117 -0.1349 -0.0840
    1DPPC   C1A17573  10.613   9.484   3.721  0.1263  0.1072 -0.0878
    1DPPC   C2A17574  10.719   9.565   4.115  0.3397  0.2279  0.0727
    1DPPC   C3A17575  10.990   9.699   4.499 -0.0553  0.0312  0.1086
    1DPPC   C4A17576  11.319   9.572   4.840  0.2181 -0.1136  0.2373
    1DPPC   C1B17577  11.038   9.261   3.841 -0.3251  0.0423  0.0955
    1DPPC   C2B17578  11.171   9.277   4.268  0.1619  0.1401 -0.0162
    1DPPC   C3B17579  11.360   9.079   4.625 -0.1285  0.0051  0.2378
    1DPPC   C4B17580  11.853   9.017   4.735 -0.2978 -0.2217 -0.0675
    1DPPC   NC317581  11.216  12.368   2.717 -0.2687 -0.2715 -0.2092
    1DPPC   PO417582  11.007  12.722   2.787  0.2087  0.0551  0.1024
    1DPPC   GL117583  11.077  12.566   3.230 -0.1414 -0.0871 -0.3103
    1DPPC   GL217584  10.764  12.365   3.404 -0.3481  0.0545 -0.1671
    1DPPC   C1A17585  11.404  12.688   3.602  0.1779 -0.0763 -0.0788
    1DPPC   C2A17586  11.408  12.649   4.085 -0.0119  0.0213 -0.3578
    1DPPC   C3A17587  11.436  12.740   4.403 -0.1428  0.0566  0.0116
    1DPPC   C4A17588  11.476  12.914   4.742 -0.1195 -0.0729  0.0998
    1DPPC   C1B17589  10.995  12.477   3.830 -0.0750  0.2041  0.1246
    1DPPC   C2B17590  10.930  12.557   4.246  0.0355 -0.1404  0.2667
    1DPPC   C3B17591  10.969  12.523   4.694  0.2277  0.0112 -0.3634
    1DPPC   C4B17592  10.816  12.388   5.143 -0.0752 -0.4650 -0.1264
    1DPPC   NC317593  23.524  12.548   2.135  0.1967  0.0243  0.0400
    1DPPC   PO417594  23.246  12.163   2.191  0.0510  0.0370 -0.3212
    1DPPC   GL117595  23.158  12.075   2.677  0.0028  0.2125 -0.0977
    1DPPC   GL217596  22.862  11.980   2.824 -0.5586  0.0245 -0.1547
    1DPPC   C1A17597  23.239  12.366   3.036  0.2323  0.0952  0.0004
    1DPPC   C2A17598  23.374  12.418   3.462  0.1574 -0.0076 -0.0286
    1DPPC   C3A17599  23.422  12.594   3.876 -0.0824  0.2516  0.1797
    1DPPC   C4A17600  23.683  12.766   4.229  0.0539  0.3330  0.3538
    1DPPC   C1B17601  22.665  11.909   3.186 -0.0049 -0.1847  0.0807
    1DPPC   C2B17602  22.778  11.963   3.655  0.2228  0.1048  0.1915
    1DPPC   C3B17603  22.798  12.096   4.077  0.0307 -0.2089 -0.1168
    1DPPC   C4B17604  22.602  12.385   4.414 -0.0949  0.0664  0.1900
    1DPPC   NC317605  23.507  17.592   2.278 -0.0641 -0.1982 -0.1049
    1DPPC   PO417606  23.518  17.995   2.353  0.2209 -0.1388  0.0258
    1DPPC   GL117607  23.653  18.100   2.684 -0.1497  0.2214  0.0434
    1DPPC   GL217608  23.798  17.815   2.845 -0.1195  0.1832  0.0573
    1DPPC   C1A17609  23.539  18.245   3.123  0.0575 -0.2116  0.0412
    1DPPC   C2A17610  23.677  17.992   3.476 -0.0389  0.2692  0.0473
    1DPPC   C3A17611  23.977  17.866   3.786  0.0379 -0.1476  0.2188
    1DPPC   C4A17612  24.390  17.802   4.037  0.1897 -0.2903  0.4014
    1DPPC   C1B17613  23.971  18.061   3.088 -0.2182 -0.2818 -0.0381
    1DPPC   C2B17614  24.278  18.104   3.405  0.1802 -0.2647 -0.2815
    1DPPC   C3B17615  24.542  18.235   3.828  0.1864 -0.1294 -0.0836
    1DPPC   C4B17616  24.469  18.382   4.184 -0.1229 -0.0998 -0.1935
    1DPPC   NC317617  10.289  11.862   3.191 -0.3205 -0.1525 -0.0282
    1DPPC   PO417618  10.680  11.765   3.040 -0.0147 -0.1580 -0.0712
    1DPPC   GL117619  10.791  11.727   3.404 -0.4906 -0.0633  0.1346
    1DPPC   GL217620  10.911  11.472   3.593 -0.0750 -0.0499 -0.1271
    1DPPC   C1A17621  10.957  11.901   3.726 -0.2209 -0.0925 -0.1686
    1DPPC   C2A17622  10.938  11.974   4.209  0.0819 -0.0099  0.1279
    1DPPC   C3A17623  10.852  11.777   4.650  0.0256 -0.1995 -0.2565
    1DPPC   C4A17624  11.125  11.683   5.038  0.0412 -0.1999  0.0206
    1DPPC   C1B17625  10.996  11.442   4.115  0.2717 -0.3761 -0.2196
    1DPPC   C2B17626  10.930  11.352   4.491 -0.1289 -0.0286 -0.0103
    1DPPC   C3B17627  10.886  11.266   4.920 -0.1486  0.1341  0.1444
    1DPPC   C4B17628  10.575  11.057   5.186  0.3630  0.0261  0.2008
    1DPPC   NC317629  21.084  20.371   3.017 -0.1089  0.0561  0.4622
    1DPPC   PO417630  21.109  19.960   2.870 -0.1861 -0.0117 -0.0994
    1DPPC   GL117631  21.183  19.741   3.223  0.2207  0.0823 -0.0247
    1DPPC   GL217632  21.194  19.404   3.216  0.3296  0.1716  0.2441
    1DPPC   C1A17633  20.918  19.706   3.601 -0.1129  0.0680 -0.0149
    1DPPC   C2A17634  20.969  19.900   4.004 -0.1061  0.1284 -0.0059
    1DPPC   C3A17635  20.843  19.956   4.376 -0.0749  0.0005 -0.1850
    1DPPC   C4A17636  20.847  20.146   4.801  0.1485 -0.0580  0.0506
    1DPPC   C1B17637  21.447  19.503   3.607 -0.3320  0.2885  0.0263
    1DPPC   C2B17638  21.399  19.381   3.976 -0.0764 -0.0021  0.0586
    1DPPC   C3B17639  21.425  19.263   4.347  0.0956  0.1742 -0.0920
    1DPPC   C4B17640  21.340  19.326   4.721 -0.0819  0.0500 -0.1562
    1DPPC   NC317641  17.221  16.667   1.805 -0.0771 -0.0226 -0.2462
    1DPPC   PO417642  17.030  16.594   2.209 -0.1052  0.3550  0.0501
    1DPPC   GL117643  17.194  16.282   2.562 -0.0581  0.3755  0.0601
    1DPPC   GL217644  17.221  16.014   2.522 -0.0916  0.1231  0.0498
    1DPPC   C1A17645  17.208  16.147   3.035 -0.2460  0.0346 -0.0278
    1DPPC   C2A17646  17.244  16.154   3.506 -0.2953 -0.3754 -0.2167
    1DPPC   C3A17647  17.138  16.185   3.974  0.2192 -0.3222 -0.0006
    1DPPC   C4A17648  16.970  16.189   4.326 -0.0548 -0.2186 -0.0316
    1DPPC   C1B17649  17.407  15.666   2.809  0.2645  0.1274 -0.1123
    1DPPC   C2B17650  17.444  15.715   3.238 -0.0427 -0.1363 -0.0392
    1DPPC   C3B17651  17.343  15.733   3.751 -0.0925  0.0193  0.0621
    1DPPC   C4B17652  17.258  15.669   4.189  0.0258  0.0595 -0.1095
    1DPPC   NC317653  22.560  19.620   2.764  0.0518  0.0468 -0.4231
    1DPPC   PO417654  22.953  19.443   2.988  0.0118  0.0420  0.2997
    1DPPC   GL117655  22.695  19.285   3.221  0.2383 -0.0902  0.1687
    1DPPC   GL217656  22.435  19.406   3.315  0.0318 -0.0013 -0.0569
    1DPPC   C1A17657  22.745  19.106   3.615  0.2890  0.0131  0.0146
    1DPPC   C2A17658  22.809  18.917   4.058 -0.1877 -0.1561  0.0019
    1DPPC   C3A17659  22.913  18.784   4.430  0.0623 -0.0562  0.2725
    1DPPC   C4A17660  23.218  18.795   4.872  0.0985 -0.0222  0.0844
    1DPPC   C1B17661  22.376  19.448   3.782  0.0283 -0.0839 -0.1664
    1DPPC   C2B17662  22.687  19.365   4.169  0.0520  0.4343 -0.2030
    1DPPC   C3B17663  22.779  19.256   4.535  0.1971 -0.1257 -0.2408
    1DPPC   C4B17664  22.711  18.929   4.846 -0.1351  0.1129  0.1917
    1DPPC   NC317665  11.667  17.954   2.045 -0.0898 -0.2564  0.1328
    1DPPC   PO417666  11.291  17.632   1.945 -0.0452 -0.2221  0.0169
    1DPPC   GL117667  11.201  17.746   2.402 -0.2599  0.2519 -0.0309
    1DPPC   GL217668  11.378  18.066   2.483 -0.2166  0.0797 -0.1551
    1DPPC   C1A17669  11.347  17.402   2.728  0.0045  0.2364 -0.2488
    1DPPC   C2A17670  11.393  17.487   3.247  0.0830  0.0389 -0.0359
    1DPPC   C3A17671  11.354  17.627   3.698  0.2679 -0.1420 -0.2502
    1DPPC   C4A17672  11.228  17.678   4.101 -0.2123 -0.1171  0.1080
    1DPPC   C1B17673  11.269  17.907   2.910 -0.0651 -0.2156 -0.0254
    1DPPC   C2B17674  11.410  17.956   3.344  0.1919 -0.0332  0.2928
    1DPPC   C3B17675  11.384  18.097   3.776 -0.1742  0.0696 -0.0708
    1DPPC   C4B17676  11.492  18.254   4.172  0.2156  0.0783  0.0502
    1DPPC   NC317677   8.484  11.382   2.899 -0.0404 -0.1810  0.0644
    1DPPC   PO417678   8.458  11.263   3.335 -0.0543 -0.3334  0.0137
    1DPPC   GL117679   8.303  11.120   3.688 -0.1922  0.1635 -0.2719
    1DPPC   GL217680   8.026  11.087   3.749 -0.3653  0.1487 -0.2845
    1DPPC   C1A17681   8.467  11.360   4.091 -0.0079 -0.3166  0.0004
    1DPPC   C2A17682   8.565  11.535   4.548  0.1435  0.1910 -0.3466
    1DPPC   C3A17683   8.861  11.496   4.885  0.0399 -0.2490  0.1604
    1DPPC   C4A17684   9.060  11.454   5.207  0.0944  0.0803  0.0564
    1DPPC   C1B17685   7.912  11.188   4.166  0.1623  0.2384  0.0531
    1DPPC   C2B17686   7.794  11.107   4.529 -0.0014 -0.1975 -0.4373
    1DPPC   C3B17687   7.741  10.790   4.852  0.0861 -0.4533 -0.0529
    1DPPC   C4B17688   7.666  10.361   4.943 -0.3450 -0.3324 -0.2239
    1DPPC   NC317689  27.923  23.237   2.251 -0.2537  0.0251  0.0430
    1DPPC   PO417690  28.316  23.397   2.448  0.1354  0.2148  0.0124
    1DPPC   GL117691  28.462  23.362   2.902 -0.0302 -0.1914 -0.1273
    1DPPC   GL217692  28.449  23.052   2.962  0.0234  0.1604 -0.0263
    1DPPC   C1A17693  28.482  23.612   3.303 -0.0620  0.1792 -0.2754
    1DPPC   C2A17694  28.744  23.773   3.677 -0.0721  0.0610  0.1244
    1DPPC   C3A17695  28.867  23.991   4.050 -0.1639  0.2306 -0.0740
    1DPPC   C4A17696  29.246  24.174   4.223  0.1216 -0.0538 -0.1864
    1DPPC   C1B17697  28.190  23.162   3.327 -0.0765 -0.1074  0.0599
    1DPPC   C2B17698  28.250  23.373   3.697 -0.0624  0.1293  0.1620
    1DPPC   C3B17699  28.242  23.465   4.105 -0.0864  0.2171  0.0960
    1DPPC   C4B17700  27.758  23.377   4.117  0.1170  0.0773  0.2673
    1DPPC   NC317701   9.737  11.270   2.769  0.2709  0.1532  0.2087
    1DPPC   PO417702   9.926  10.867   2.864  0.0580 -0.2248 -0.4215
    1DPPC   GL117703  10.061  10.701   3.231  0.0784  0.1154 -0.0268
    1DPPC   GL217704  10.183  10.374   3.322 -0.0230 -0.1583  0.0080
    1DPPC   C1A17705  10.337  10.901   3.575  0.3885  0.4935  0.3940
    1DPPC   C2A17706  10.378  10.833   3.937  0.1516 -0.2244  0.2591
    1DPPC   C3A17707  10.430  10.893   4.318  0.1363 -0.0650 -0.1454
    1DPPC   C4A17708  10.451  11.078   4.670 -0.1296  0.0727  0.2026
    1DPPC   C1B17709  10.082  10.436   3.797  0.0562 -0.0330  0.1951
    1DPPC   C2B17710  10.087  10.491   4.244  0.0999 -0.4718 -0.2930
    1DPPC   C3B17711  10.034  10.695   4.567  0.0360 -0.1071  0.1324
    1DPPC   C4B17712  10.086  10.931   4.995  0.1985 -0.0954  0.1483
    1DPPC   NC317713  16.450  18.446   2.439  0.0407  0.1607  0.2737
    1DPPC   PO417714  16.164  18.695   2.555  0.3676  0.1436 -0.1295
    1DPPC   GL117715  16.014  18.995   2.970 -0.2570 -0.3154 -0.0644
    1DPPC   GL217716  16.149  19.390   3.130 -0.1371  0.2513 -0.0025
    1DPPC   C1A17717  16.095  18.963   3.469  0.0160 -0.0144 -0.0667
    1DPPC   C2A17718  16.130  18.984   3.921  0.1951 -0.1095  0.4570
    1DPPC   C3A17719  16.204  19.001   4.313  0.3143  0.1646  0.0340
    1DPPC   C4A17720  16.055  18.902   4.644  0.0957  0.0441 -0.0727
    1DPPC   C1B17721  16.075  19.453   3.478 -0.0143  0.0876  0.0526
    1DPPC   C2B17722  16.094  19.484   3.896 -0.2610  0.1217 -0.1614
    1DPPC   C3B17723  16.146  19.540   4.215 -0.1733  0.1014  0.1262
    1DPPC   C4B17724  16.021  19.476   4.609  0.0920  0.0048  0.2484
    1DPPC   NC317725  19.135  16.987   2.280  0.1956 -0.3793 -0.0101
    1DPPC   PO417726  19.492  17.257   2.339  0.1647  0.1294  0.1695
    1DPPC   GL117727  19.751  17.158   2.759  0.1936  0.0616 -0.1304
    1DPPC   GL217728  19.457  17.046   2.796  0.1426  0.1375 -0.2592
    1DPPC   C1A17729  19.888  16.875   3.048 -0.0305 -0.0143  0.1427
    1DPPC   C2A17730  19.918  16.816   3.456 -0.4599 -0.0745 -0.0601
    1DPPC   C3A17731  19.880  16.955   3.887  0.1325 -0.0088 -0.0865
    1DPPC   C4A17732  19.633  16.875   4.258 -0.1176  0.0980 -0.0796
    1DPPC   C1B17733  19.422  16.940   3.247 -0.0536  0.2781  0.1123
    1DPPC   C2B17734  19.445  16.867   3.594  0.1956 -0.1050 -0.1896
    1DPPC   C3B17735  19.242  16.708   3.969 -0.0050 -0.2387  0.1548
    1DPPC   C4B17736  19.314  16.501   4.379  0.0914 -0.1557 -0.2273
    1DPPC   NC317737  21.076  17.379   2.053  0.1798 -0.0435 -0.1759
    1DPPC   PO417738  21.432  17.235   2.361  0.0286 -0.3703 -0.1619
    1DPPC   GL117739  21.675  17.012   2.630  0.0614  0.1667 -0.0039
    1DPPC   GL217740  22.031  17.026   2.524  0.2892 -0.1755 -0.0674
    1DPPC   C1A17741  21.564  16.996   3.028 -0.0440  0.2018 -0.0483
    1DPPC   C2A17742  21.603  16.983   3.430 -0.2165 -0.1528 -0.1627
    1DPPC   C3A17743  21.437  16.789   3.757 -0.1176 -0.0594  0.5405
    1DPPC   C4A17744  21.392  16.744   4.216  0.2256 -0.1500  0.1296
    1DPPC   C1B17745  22.116  17.134   2.986 -0.0699 -0.1958  0.2533
    1DPPC   C2B17746  22.145  17.014   3.403 -0.0393  0.0470  0.2418
    1DPPC   C3B17747  22.419  17.107   3.637 -0.1616 -0.3022  0.0075
    1DPPC   C4B17748  22.744  17.114   3.797 -0.1159 -0.3581  0.1304
    1DPPC   NC317749  14.367  13.942   2.306  0.1630  0.1380  0.0005
    1DPPC   PO417750  13.945  14.146   2.293  0.0633  0.2156  0.1086
    1DPPC   GL117751  14.088  14.241   2.736 -0.1777 -0.0634 -0.0584
    1DPPC   GL217752  14.206  14.000   2.876 -0.0802  0.1860 -0.1766
    1DPPC   C1A17753  14.111  14.396   3.118  0.0666 -0.0595  0.2568
    1DPPC   C2A17754  14.227  14.317   3.490  0.1833 -0.1564  0.1341
    1DPPC   C3A17755  14.273  14.414   3.893 -0.3956  0.0616  0.2076
    1DPPC   C4A17756  14.535  14.381   4.359  0.0615 -0.2629 -0.0759
    1DPPC   C1B17757  14.008  13.864   3.275 -0.3000 -0.0033  0.2569
    1DPPC   C2B17758  14.037  13.944   3.739 -0.2840 -0.3761 -0.1283
    1DPPC   C3B17759  14.071  13.825   4.142  0.0337  0.0355 -0.1778
    1DPPC   C4B17760  14.344  13.969   4.479  0.1167 -0.2726 -0.2386
    1DPPC   NC317761  22.803  12.296   2.348 -0.3110  0.0604  0.1736
    1DPPC   PO417762  22.398  12.499   2.079  0.1736 -0.1706 -0.0231
    1DPPC   GL117763  22.557  12.706   2.503 -0.2513 -0.0137 -0.0883
    1DPPC   GL217764  22.381  12.436   2.601  0.1390 -0.0380 -0.1291
    1DPPC   C1A17765  22.660  13.010   2.813 -0.1603 -0.0095 -0.1811
    1DPPC   C2A17766  22.671  12.989   3.225  0.2262 -0.2073 -0.1005
    1DPPC   C3A17767  22.561  12.972   3.703  0.4077 -0.4082  0.0013
    1DPPC   C4A17768  22.680  13.201   4.056  0.0836 -0.0973  0.1750
    1DPPC   C1B17769  22.284  12.715   2.899 -0.3410  0.1335  0.0727
    1DPPC   C2B17770  22.299  12.651   3.309 -0.0409  0.3781  0.1442
    1DPPC   C3B17771  22.207  12.674   3.685 -0.0706 -0.0703  0.3697
    1DPPC   C4B17772  22.343  12.434   4.014 -0.0960  0.0226  0.1022
    1DPPC   NC317773  13.402  21.536   2.251  0.4499 -0.3777 -0.0950
    1DPPC   PO417774  13.368  21.035   2.128  0.1519  0.1084  0.1239
    1DPPC   GL117775  13.380  20.869   2.510 -0.1157  0.0754  0.0765
    1DPPC   GL217776  13.582  20.942   2.783 -0.1667 -0.0843 -0.1469
    1DPPC   C1A17777  13.250  20.522   2.824 -0.0815 -0.0748 -0.0104
    1DPPC   C2A17778  13.291  20.363   3.213  0.2512  0.0727  0.1307
    1DPPC   C3A17779  13.331  20.225   3.565 -0.2698 -0.1661 -0.0901
    1DPPC   C4A17780  13.340  20.150   4.000  0.0338 -0.0996  0.1535
    1DPPC   C1B17781  13.462  20.833   3.212  0.0716  0.2079 -0.0098
    1DPPC   C2B17782  13.335  20.813   3.581  0.0767  0.4824  0.0135
    1DPPC   C3B17783  13.372  20.677   4.044 -0.1092  0.2906 -0.1215
    1DPPC   C4B17784  13.372  20.356   4.484  0.0108  0.1263  0.2918
    1DPPC   NC317785  16.454  20.983   2.506 -0.2655  0.2615 -0.0411
    1DPPC   PO417786  16.717  20.695   2.527 -0.0166  0.0783 -0.0726
    1DPPC   GL117787  16.672  20.918   2.938 -0.4041  0.1245  0.1153
    1DPPC   GL217788  16.856  21.112   3.107  0.0244 -0.0140  0.0070
    1DPPC   C1A17789  16.329  20.824   3.286  0.0003 -0.0160  0.2239
    1DPPC   C2A17790  16.331  20.943   3.683 -0.0898  0.1551 -0.0052
    1DPPC   C3A17791  16.459  20.861   4.075  0.2405  0.0986  0.0287
    1DPPC   C4A17792  16.583  21.052   4.489  0.0593 -0.0599 -0.1127
    1DPPC   C1B17793  16.649  21.254   3.474  0.2895  0.3520 -0.0314
    1DPPC   C2B17794  16.598  21.320   3.964 -0.0256 -0.2532 -0.0010
    1DPPC   C3B17795  16.803  21.428   4.354 -0.0222  0.1562 -0.1228
    1DPPC   C4B17796  16.776  21.465   4.742 -0.1002  0.1675  0.0058
    1DPPC   NC317797  14.983  16.863   2.456 -0.0937  0.1794  0.0615
    1DPPC   PO417798  14.561  16.636   2.443  0.0080  0.1426 -0.1594
    1DPPC   GL117799  14.252  16.639   2.764 -0.0700 -0.0875  0.1706
    1DPPC   GL217800  14.401  16.361   2.865 -0.1210  0.2640 -0.0619
    1DPPC   C1A17801  14.118  16.664   3.201 -0.0220  0.1172  0.3414
    1DPPC   C2A17802  14.216  16.663   3.608  0.0249 -0.0159  0.0424
    1DPPC   C3A17803  14.368  16.924   4.011  0.0524  0.0220 -0.1337
    1DPPC   C4A17804  14.419  17.152   4.426  0.1567 -0.0044 -0.1283
    1DPPC   C1B17805  14.489  16.302   3.287  0.0987 -0.0516 -0.3038
    1DPPC   C2B17806  14.572  16.247   3.698  0.0283  0.1291 -0.2217
    1DPPC   C3B17807  14.369  16.376   4.138  0.0100  0.1916  0.0358
    1DPPC   C4B17808  14.197  16.612   4.394  0.0572 -0.1590  0.0522
    1DPPC   NC317809  15.567  20.570   2.615 -0.0543 -0.0224 -0.0892
    1DPPC   PO417810  16.002  20.397   2.437  0.2330  0.2762 -0.2298
    1DPPC   GL117811  15.944  20.269   2.862  0.0131 -0.0132  0.1688
    1DPPC   GL217812  15.606  20.242   3.026  0.1111 -0.0529 -0.1343
    1DPPC   C1A17813  16.045  20.413   3.279  0.0152 -0.1347  0.3137
    1DPPC   C2A17814  15.958  20.383   3.717  0.1435  0.0075  0.0760
    1DPPC   C3A17815  15.963  20.629   3.984  0.0584  0.1304 -0.1589
    1DPPC   C4A17816  16.022  21.097   4.148 -0.4202 -0.1469  0.0693
    1DPPC   C1B17817  15.531  20.453   3.386  0.3620  0.1060 -0.0517
    1DPPC   C2B17818  15.495  20.420   3.845  0.2555  0.1226 -0.0322
    1DPPC   C3B17819  15.684  20.288   4.194  0.0934  0.2889 -0.3977
    1DPPC   C4B17820  15.613  20.276   4.578  0.2237 -0.0646 -0.0582
    1DPPC   NC317821  18.679  15.969   1.672  0.0591  0.0862  0.0359
    1DPPC   PO417822  18.699  16.087   2.042 -0.0579 -0.0645 -0.1440
    1DPPC   GL117823  18.623  16.044   2.448 -0.0597  0.0989 -0.1802
    1DPPC   GL217824  18.785  15.745   2.413 -0.0341  0.1401  0.0424
    1DPPC   C1A17825  18.445  15.828   2.861 -0.0583 -0.1727  0.2335
    1DPPC   C2A17826  18.524  15.702   3.250 -0.0247  0.2759 -0.1394
    1DPPC   C3A17827  18.413  15.621   3.724  0.0731  0.3797  0.2456
    1DPPC   C4A17828  18.272  15.564   4.074  0.0884  0.1464 -0.0869
    1DPPC   C1B17829  18.817  15.345   2.733  0.0637  0.0409 -0.2984
    1DPPC   C2B17830  18.735  15.255   3.169  0.0523 -0.1918 -0.0753
    1DPPC   C3B17831  18.722  15.253   3.546 -0.0474  0.0417 -0.1953
    1DPPC   C4B17832  18.660  15.277   3.974 -0.2199 -0.2001  0.0422
    1DPPC   NC317833  20.004  16.479   2.296  0.1145 -0.1980 -0.1622
    1DPPC   PO417834  20.436  16.529   2.308 -0.0587  0.2309 -0.1198
    1DPPC   GL117835  20.493  16.575   2.637  0.0797 -0.2819  0.0884
    1DPPC   GL217836  20.186  16.518   2.770  0.1350  0.2448 -0.0190
    1DPPC   C1A17837  20.603  16.433   3.086  0.0334  0.1814 -0.1051
    1DPPC   C2A17838  20.621  16.293   3.532 -0.0405 -0.1124 -0.0403
    1DPPC   C3A17839  20.753  16.145   3.917 -0.0790  0.0077 -0.1219
    1DPPC   C4A17840  20.677  16.065   4.330 -0.1627 -0.0383 -0.0560
    1DPPC   C1B17841  20.171  16.441   3.259  0.1054 -0.0059 -0.2084
    1DPPC   C2B17842  20.166  16.369   3.708  0.0996  0.2947 -0.0842
    1DPPC   C3B17843  20.375  16.407   4.111  0.1144 -0.1606  0.2714
    1DPPC   C4B17844  20.413  16.504   4.556 -0.2967  0.0089 -0.1485
    1DPPC   NC317845   9.364  17.825   2.289  0.1899 -0.0711 -0.1294
    1DPPC   PO417846   9.305  18.355   2.253 -0.1510 -0.2506 -0.1512
    1DPPC   GL117847   9.027  18.646   2.560  0.2122 -0.1335  0.0993
    1DPPC   GL217848   8.959  19.014   2.631  0.3527  0.4652 -0.0080
    1DPPC   C1A17849   8.901  18.659   2.983  0.1092 -0.1629  0.1788
    1DPPC   C2A17850   8.894  18.841   3.433  0.3037 -0.1203  0.0595
    1DPPC   C3A17851   9.083  19.183   3.775 -0.0213  0.0879 -0.1595
    1DPPC   C4A17852   9.422  19.171   3.975  0.3592  0.0169  0.0407
    1DPPC   C1B17853   9.095  19.092   3.032  0.0809 -0.1010  0.0323
    1DPPC   C2B17854   9.159  19.454   3.370  0.0915 -0.0388  0.0163
    1DPPC   C3B17855   9.196  19.676   3.729 -0.1112  0.2919 -0.1865
    1DPPC   C4B17856   9.393  19.920   4.023 -0.1408 -0.1077  0.2729
    1DPPC   NC317857  16.067   7.574   2.179 -0.0080 -0.1026 -0.0052
    1DPPC   PO417858  16.148   7.295   2.564  0.2200 -0.0738  0.4960
    1DPPC   GL117859  16.143   7.470   2.993 -0.2745  0.0063  0.1050
    1DPPC   GL217860  16.404   7.666   3.115 -0.2056  0.1737  0.0307
    1DPPC   C1A17861  16.097   7.228   3.344  0.0700  0.2013 -0.1773
    1DPPC   C2A17862  16.099   7.159   3.749  0.3389 -0.1419 -0.0393
    1DPPC   C3A17863  16.176   7.271   4.239  0.2891 -0.3151 -0.0228
    1DPPC   C4A17864  16.301   7.382   4.704  0.2417 -0.1170 -0.1765
    1DPPC   C1B17865  16.462   7.545   3.508  0.0250  0.0937 -0.0055
    1DPPC   C2B17866  16.531   7.587   3.957 -0.0993 -0.1362  0.0525
    1DPPC   C3B17867  16.472   7.696   4.336 -0.0099 -0.1617  0.0275
    1DPPC   C4B17868  16.027   7.700   4.483  0.0219 -0.1672  0.1802
    1DPPC   NC317869  25.126  13.285   2.047  0.3293 -0.0034  0.2626
    1DPPC   PO417870  24.998  13.086   2.348  0.1824 -0.0647 -0.1647
    1DPPC   GL117871  25.036  13.116   2.783 -0.1487 -0.0784  0.1743
    1DPPC   GL217872  25.205  12.869   2.922  0.0982  0.4372  0.1836
    1DPPC   C1A17873  24.890  13.227   3.192 -0.3966  0.1848 -0.0025
    1DPPC   C2A17874  24.913  13.296   3.596  0.2197  0.0459  0.0550
    1DPPC   C3A17875  24.833  13.443   3.912  0.2023  0.0023  0.3762
    1DPPC   C4A17876  24.633  13.700   4.251 -0.0253  0.2829  0.3281
    1DPPC   C1B17877  25.291  13.054   3.286  0.2966  0.1821 -0.2143
    1DPPC   C2B17878  25.239  12.889   3.671  0.0434  0.1084  0.4864
    1DPPC   C3B17879  25.023  12.966   4.111  0.0880  0.0527  0.2770
    1DPPC   C4B17880  24.707  12.716   4.382  0.1425 -0.0469  0.1618
    1DPPC   NC317881  12.653   8.986   2.560 -0.3396  0.1051  0.1411
    1DPPC   PO417882  12.699   9.348   2.845  0.0785 -0.0408  0.4959
    1DPPC   GL117883  12.525   9.403   3.251 -0.2662  0.0781 -0.2339
    1DPPC   GL217884  12.520   9.121   3.404  0.0841  0.1114  0.1876
    1DPPC   C1A17885  12.426   9.608   3.618  0.1186 -0.3512  0.0118
    1DPPC   C2A17886  12.503   9.691   4.031  0.2741  0.2050  0.0657
    1DPPC   C3A17887  12.446   9.584   4.360  0.1548 -0.3415 -0.0533
    1DPPC   C4A17888  12.460   9.511   4.782 -0.0165 -0.0003  0.0991
    1DPPC   C1B17889  12.622   9.143   3.758  0.0987 -0.0184  0.0294
    1DPPC   C2B17890  12.716   9.236   4.191 -0.0024 -0.2024 -0.4464
    1DPPC   C3B17891  12.790   9.235   4.599  0.1577  0.1190  0.3271
    1DPPC   C4B17892  12.692   9.149   4.969 -0.0375  0.1305  0.2565
    1DPPC   NC317893  19.788  18.966   2.445 -0.3617  0.1248  0.1461
    1DPPC   PO417894  20.026  19.108   2.804 -0.0364  0.2324 -0.0199
    1DPPC   GL117895  19.882  19.214   3.167  0.1814  0.1829  0.0379
    1DPPC   GL217896  19.976  19.491   3.396  0.5918 -0.2411  0.1169
    1DPPC   C1A17897  19.546  19.118   3.437  0.2250  0.1688  0.0566
    1DPPC   C2A17898  19.624  18.919   3.774  0.2474  0.2779  0.2505
    1DPPC   C3A17899  19.667  18.925   4.249  0.1313  0.0076  0.0205
    1DPPC   C4A17900  19.828  19.054   4.659 -0.2101 -0.0917  0.0833
    1DPPC   C1B17901  19.968  19.252   3.695 -0.1666 -0.1410 -0.0266
    1DPPC   C2B17902  20.026  19.250   4.218 -0.2755 -0.2019 -0.0434
    1DPPC   C3B17903  20.136  19.466   4.648 -0.0497  0.1146  0.0893
    1DPPC   C4B17904  20.112  19.768   5.037  0.4221 -0.1180  0.1052
    1DPPC   NC317905  23.758  23.353   3.235  0.1987 -0.2961 -0.2247
    1DPPC   PO417906  24.054  23.705   3.062  0.1830 -0.1563 -0.1827
    1DPPC   GL117907  24.163  23.686   3.442 -0.1962  0.1528  0.2203
    1DPPC   GL217908  23.849  23.715   3.592  0.0716  0.2064 -0.0953
    1DPPC   C1A17909  24.309  23.908   3.718  0.1466  0.1264  0.1221
    1DPPC   C2A17910  24.642  24.021   3.909  0.4784  0.1980  0.2095
    1DPPC   C3A17911  25.010  24.165   4.129 -0.1040  0.0106  0.1064
    1DPPC   C4A17912  25.349  24.191   4.499 -0.1274 -0.1060  0.1129
    1DPPC   C1B17913  24.033  23.626   4.049  0.1763  0.1664  0.0231
    1DPPC   C2B17914  24.374  23.795   4.392  0.1848  0.1734  0.0299
    1DPPC   C3B17915  24.521  23.829   4.752  0.0586  0.1377 -0.0704
    1DPPC   C4B17916  24.643  23.814   5.051  0.0080 -0.1251 -0.5034
    1DPPC   NC317917   5.858  15.533   2.179 -0.0423 -0.0684  0.1098
    1DPPC   PO417918   5.571  15.848   2.026  0.0293  0.0080  0.0440
    1DPPC   GL117919   5.792  16.034   2.399  0.1521  0.1504 -0.2889
    1DPPC   GL217920   5.689  16.271   2.685 -0.1753 -0.1262 -0.0828
    1DPPC   C1A17921   5.981  15.915   2.909  0.2362 -0.0839  0.0206
    1DPPC   C2A17922   6.121  15.573   3.061 -0.1038 -0.1429 -0.0362
    1DPPC   C3A17923   6.024  15.515   3.542 -0.1203 -0.1248 -0.1000
    1DPPC   C4A17924   6.232  15.187   3.860  0.0219 -0.0870  0.1700
    1DPPC   C1B17925   5.388  15.953   2.866  0.2124 -0.1433  0.0224
    1DPPC   C2B17926   5.174  15.697   3.194  0.0279 -0.0628  0.0222
    1DPPC   C3B17927   5.066  15.753   3.516  0.1267 -0.0793  0.1691
    1DPPC   C4B17928   4.914  16.039   3.929  0.0130  0.3273  0.1099
    1DPPC   NC317929  21.113  19.197   2.380  0.3072  0.1197  0.3398
    1DPPC   PO417930  21.026  19.135   2.779 -0.0351  0.3735 -0.1635
    1DPPC   GL117931  20.931  18.979   3.287 -0.1404  0.0022  0.2326
    1DPPC   GL217932  20.663  18.830   3.386  0.1371  0.0331  0.0099
    1DPPC   C1A17933  20.974  19.214   3.626 -0.2877  0.3229 -0.2281
    1DPPC   C2A17934  20.897  19.313   4.088  0.2462 -0.1139  0.0665
    1DPPC   C3A17935  20.936  19.082   4.488  0.1281  0.3180  0.4041
    1DPPC   C4A17936  20.764  19.049   4.835 -0.2226 -0.0074  0.2052
    1DPPC   C1B17937  20.864  18.711   3.796 -0.0179  0.0888 -0.1479
    1DPPC   C2B17938  20.759  18.659   4.168 -0.0496 -0.1082 -0.0083
    1DPPC   C3B17939  20.621  18.611   4.555 -0.2070 -0.2678 -0.0564
    1DPPC   C4B17940  20.810  18.611   4.899  0.1810 -0.0912 -0.0277
    1DPPC   NC317941  19.712   9.247   2.189  0.0783 -0.1695 -0.1413
    1DPPC   PO417942  19.334   9.369   2.229  0.0739  0.3696 -0.2429
    1DPPC   GL117943  19.258   9.424   2.564  0.1288  0.0024  0.1041
    1DPPC   GL217944  19.503   9.514   2.784  0.0158 -0.1113 -0.1325
    1DPPC   C1A17945  19.026   9.363   2.966  0.2933 -0.0909 -0.0743
    1DPPC   C2A17946  18.918   9.365   3.379 -0.2030  0.1951 -0.1853
    1DPPC   C3A17947  18.968   9.297   3.806  0.0067 -0.1004 -0.1699
    1DPPC   C4A17948  19.195   9.204   4.097 -0.1280  0.2185  0.2504
    1DPPC   C1B17949  19.729   9.551   3.204  0.3474 -0.0038 -0.0217
    1DPPC   C2B17950  19.825   9.310   3.568 -0.1335 -0.2144 -0.1832
    1DPPC   C3B17951  19.947   9.078   3.944 -0.0840  0.0585  0.1823
    1DPPC   C4B17952  20.127   8.633   4.029  0.0320  0.0663 -0.0084
    1DPPC   NC317953  18.002  17.390   2.048  0.1646 -0.0365  0.2762
    1DPPC   PO417954  18.243  17.252   2.463  0.2195  0.0305  0.0705
    1DPPC   GL117955  18.004  17.275   2.877 -0.1134  0.2039  0.1012
    1DPPC   GL217956  17.685  17.316   2.841  0.1057 -0.0981  0.0159
    1DPPC   C1A17957  18.081  17.273   3.323 -0.3142  0.0382  0.3501
    1DPPC   C2A17958  18.203  17.243   3.764  0.1970 -0.0736  0.1634
    1DPPC   C3A17959  18.255  16.867   4.101 -0.0848  0.3177 -0.1718
    1DPPC   C4A17960  18.159  16.946   4.531 -0.0847 -0.3925 -0.1857
    1DPPC   C1B17961  17.666  17.058   3.161 -0.1183 -0.2087  0.0554
    1DPPC   C2B17962  17.699  17.051   3.582  0.0617 -0.0027 -0.0487
    1DPPC   C3B17963  17.792  17.067   4.048  0.0343 -0.0271  0.0607
    1DPPC   C4B17964  18.104  17.356   4.269  0.0565 -0.3425  0.2888
    1DPPC   NC317965  21.905  10.492   2.444 -0.2288  0.2963 -0.2948
    1DPPC   PO417966  22.073  10.087   2.333  0.0987  0.2140 -0.1008
    1DPPC   GL117967  22.092  10.092   2.721 -0.3837  0.1426  0.1008
    1DPPC   GL217968  22.327   9.990   2.973 -0.0923 -0.2658  0.1859
    1DPPC   C1A17969  21.814  10.280   3.141 -0.1767  0.1275 -0.1962
    1DPPC   C2A17970  21.535  10.094   3.481  0.3454  0.0897  0.0769
    1DPPC   C3A17971  21.497   9.804   3.742 -0.3043  0.1757  0.0900
    1DPPC   C4A17972  21.427   9.724   4.242  0.0906 -0.0406 -0.2595
    1DPPC   C1B17973  22.293  10.347   3.251  0.2617 -0.0514 -0.0828
    1DPPC   C2B17974  22.355  10.744   3.529 -0.1877  0.0336 -0.0537
    1DPPC   C3B17975  22.633  11.130   3.487 -0.2448 -0.0276 -0.0582
    1DPPC   C4B17976  22.872  11.548   3.419 -0.1583  0.0316  0.2494
    1DPPC   NC317977  12.166  16.089   1.826  0.0239  0.0919  0.1342
    1DPPC   PO417978  12.113  16.398   2.212 -0.0435  0.1098  0.1237
    1DPPC   GL117979  12.332  16.452   2.613 -0.1127 -0.1321  0.0580
    1DPPC   GL217980  12.564  16.717   2.704 -0.0970 -0.2131  0.2974
    1DPPC   C1A17981  12.376  16.456   3.059 -0.2228 -0.2407  0.0830
    1DPPC   C2A17982  12.471  16.539   3.387  0.1546 -0.2189  0.2286
    1DPPC   C3A17983  12.627  16.605   3.746 -0.1920  0.3115 -0.2494
    1DPPC   C4A17984  12.872  16.586   4.220  0.0464  0.1742  0.2867
    1DPPC   C1B17985  12.736  17.004   3.072 -0.1162 -0.3074 -0.0053
    1DPPC   C2B17986  12.660  17.079   3.534 -0.0460 -0.2903 -0.0397
    1DPPC   C3B17987  12.519  17.071   4.003 -0.1101 -0.3140 -0.0010
    1DPPC   C4B17988  12.419  16.704   4.265 -0.3923  0.1709  0.1388
    1DPPC   NC317989  11.731   0.865   3.504  0.3081  0.0192 -0.0489
    1DPPC   PO417990  11.376   0.961   3.343  0.2482  0.4164  0.1069
    1DPPC   GL117991  11.116   0.953   3.775  0.1392 -0.3257 -0.0310
    1DPPC   GL217992  11.466   1.085   3.881 -0.1792  0.2602  0.2121
    1DPPC   C1A17993  10.880   0.612   4.072  0.2725 -0.1038 -0.1624
    1DPPC   C2A17994  10.577   0.552   4.424  0.1670 -0.0693 -0.3770
    1DPPC   C3A17995  10.266   0.658   4.844 -0.0492  0.3554  0.0418
    1DPPC   C4A17996   9.994   0.916   5.106  0.0720  0.1352 -0.1032
    1DPPC   C1B17997  11.256   0.948   4.296  0.1684 -0.0414  0.3556
    1DPPC   C2B17998  11.112   0.947   4.697  0.2456 -0.2444  0.0716
    1DPPC   C3B17999  10.810   0.723   4.896  0.3358  0.1249 -0.3764
    1DPPC   C4B18000  10.595   0.657   5.311 -0.0943  0.0320  0.1768
    1DPPC   NC318001  21.660  16.077   1.869 -0.0135 -0.1130 -0.1332
    1DPPC   PO418002  22.017  16.294   1.968 -0.0919 -0.0507  0.1698
    1DPPC   GL118003  22.056  16.095   2.340 -0.1981  0.0658  0.1488
    1DPPC   GL218004  21.723  15.952   2.335  0.1194 -0.2470 -0.0467
    1DPPC   C1A18005  21.888  15.828   2.763  0.1182  0.3126  0.1425
    1DPPC   C2A18006  21.902  15.574   3.138 -0.0645 -0.0674 -0.3687
    1DPPC   C3A18007  21.797  15.350   3.566 -0.1554 -0.0570 -0.0151
    1DPPC   C4A18008  22.048  15.343   4.000 -0.1709  0.0710  0.0260
    1DPPC   C1B18009  21.518  16.163   2.732  0.0362  0.2165  0.3138
    1DPPC   C2B18010  21.534  16.029   3.134 -0.1690 -0.0071  0.1126
    1DPPC   C3B18011  21.486  15.948   3.669 -0.0390  0.1904 -0.1996
    1DPPC   C4B18012  21.614  16.007   4.007 -0.0168 -0.0802 -0.2307
    1DPPC   NC318013  14.238  19.822   2.142  0.0551 -0.1863 -0.1661
    1DPPC   PO418014  14.678  19.750   2.154 -0.1722 -0.0665 -0.0860
    1DPPC   GL118015  14.539  19.731   2.540 -0.1662 -0.1649 -0.0077
    1DPPC   GL218016  14.760  19.754   2.719 -0.0695 -0.0067  0.2575
    1DPPC   C1A18017  14.256  19.438   2.734 -0.0161 -0.1593 -0.0245
    1DPPC   C2A18018  14.100  19.231   3.090 -0.0396  0.0219 -0.4390
    1DPPC   C3A18019  14.079  19.343   3.503  0.1918 -0.0173  0.1082
    1DPPC   C4A18020  14.405  19.470   3.829 -0.1225 -0.3591 -0.0998
    1DPPC   C1B18021  14.818  19.757   3.173  0.0620 -0.2152  0.2698
    1DPPC   C2B18022  14.753  19.718   3.627  0.2839  0.0646  0.0315
    1DPPC   C3B18023  14.828  19.546   4.086 -0.2968  0.0468  0.3491
    1DPPC   C4B18024  14.604  19.397   4.325 -0.0400  0.2163 -0.3047
    1DPPC   NC318025   9.768  29.150   3.588  0.1869  0.0650  0.1504
    1DPPC   PO418026  10.234  28.994   3.516 -0.2839 -0.0019 -0.3037
    1DPPC   GL118027  10.238  29.116   3.931 -0.2719 -0.0979  0.0036
    1DPPC   GL218028  10.177  29.393   3.852 -0.2181  0.0319 -0.0550
    1DPPC   C1A18029  10.539  29.267   4.208  0.2177  0.1597 -0.1096
    1DPPC   C2A18030  10.653  29.499   4.437 -0.1575 -0.0180 -0.3110
    1DPPC   C3A18031  10.838  29.403   4.744 -0.0525 -0.1709  0.1004
    1DPPC   C4A18032  10.746  29.544   5.099 -0.3858  0.1649  0.0400
    1DPPC   C1B18033  10.203  29.692   4.168 -0.2879 -0.3483 -0.1512
    1DPPC   C2B18034  10.398  29.928   4.456 -0.0779  0.0903  0.1135
    1DPPC   C3B18035  10.775  30.001   4.806  0.4747  0.1616 -0.3081
    1DPPC   C4B18036  11.190  29.771   4.927 -0.4297 -0.1898 -0.1345
    1DPPC   NC318037   0.290  22.841   2.488 -0.6633  0.3639 -0.1458
    1DPPC   PO418038   0.283  23.156   2.808  0.1497  0.2165 -0.0931
    1DPPC   GL118039   0.189  22.908   3.013  0.0847 -0.0227 -0.0981
    1DPPC   GL218040   0.421  22.692   3.012  0.2310  0.0473 -0.2350
    1DPPC   C1A18041   0.177  22.848   3.446 -0.1315 -0.0577 -0.1951
    1DPPC   C2A18042   0.225  22.502   3.734 -0.0621  0.1488  0.0090
    1DPPC   C3A18043   0.112  22.450   4.190  0.0148 -0.0035 -0.2212
    1DPPC   C4A18044  -0.144  22.635   4.556 -0.2658 -0.1303 -0.0222
    1DPPC   C1B18045   0.755  22.568   3.339 -0.2697  0.0973 -0.0331
    1DPPC   C2B18046   0.750  22.388   3.591  0.0481 -0.1136 -0.0016
    1DPPC   C3B18047   0.604  22.551   3.987  0.1019 -0.2134  0.1695
    1DPPC   C4B18048   0.670  22.545   4.421  0.0992 -0.1638  0.0546
    1DPPC   NC318049  12.701  16.403   2.282 -0.1533  0.2803 -0.0348
    1DPPC   PO418050  12.523  16.036   2.415  0.0637 -0.2058  0.0321
    1DPPC   GL118051  12.522  15.980   2.811 -0.0653  0.1635 -0.1916
    1DPPC   GL218052  12.324  15.690   2.774 -0.1531  0.2330  0.1596
    1DPPC   C1A18053  12.634  16.044   3.258 -0.0332  0.0310 -0.0130
    1DPPC   C2A18054  12.627  16.130   3.696 -0.0224  0.2011  0.1112
    1DPPC   C3A18055  12.426  16.195   4.043 -0.2502  0.1269 -0.0625
    1DPPC   C4A18056  12.372  16.113   4.497 -0.0589 -0.0901  0.0445
    1DPPC   C1B18057  12.233  15.658   3.174  0.1042  0.0707 -0.0000
    1DPPC   C2B18058  12.285  15.716   3.595  0.1093 -0.1228 -0.0454
    1DPPC   C3B18059  12.312  15.636   4.041 -0.3616 -0.1362 -0.2353
    1DPPC   C4B18060  12.638  15.653   4.458  0.0041  0.1381  0.0149
    1DPPC   NC318061  12.490  17.157   2.449  0.0700  0.0919 -0.1256
    1DPPC   PO418062  12.867  16.929   2.350 -0.0940 -0.1248 -0.0782
    1DPPC   GL118063  12.936  17.212   2.683 -0.1090  0.2156 -0.0662
    1DPPC   GL218064  12.675  17.472   2.817  0.0316 -0.4070  0.0787
    1DPPC   C1A18065  13.263  17.525   2.834  0.0671  0.4293  0.1601
    1DPPC   C2A18066  13.573  17.922   2.875 -0.1799 -0.0046 -0.0803
    1DPPC   C3A18067  13.780  18.069   3.137  0.0806 -0.2331 -0.0197
    1DPPC   C4A18068  13.965  17.830   3.482  0.0440 -0.0392 -0.1111
    1DPPC   C1B18069  12.866  17.475   3.198 -0.2745  0.3178  0.0706
    1DPPC   C2B18070  13.033  17.569   3.612 -0.3210  0.2139  0.0804
    1DPPC   C3B18071  13.157  17.536   4.045 -0.1070  0.1367  0.0991
    1DPPC   C4B18072  13.102  17.717   4.439 -0.0471  0.0041 -0.1261
    1DPPC   NC318073  11.169  15.894   2.178 -0.1143 -0.0301 -0.2329
    1DPPC   PO418074  11.079  15.493   2.370  0.1345 -0.0334  0.1281
    1DPPC   GL118075  10.852  15.400   2.715  0.1506  0.0508  0.1225
    1DPPC   GL218076  10.969  15.150   2.825 -0.1596  0.0105 -0.0256
    1DPPC   C1A18077  10.690  15.486   3.116 -0.0047 -0.0505 -0.0973
    1DPPC   C2A18078  10.779  15.429   3.482 -0.1295  0.0885 -0.3811
    1DPPC   C3A18079  10.795  15.542   3.887  0.1721 -0.0746  0.0648
    1DPPC   C4A18080  10.898  15.676   4.303  0.1271 -0.0220 -0.0332
    1DPPC   C1B18081  11.026  15.008   3.288 -0.1555  0.2723 -0.0858
    1DPPC   C2B18082  11.055  15.097   3.751 -0.0109  0.0572  0.2438
    1DPPC   C3B18083  11.152  15.307   4.084 -0.3240  0.3749 -0.2804
    1DPPC   C4B18084  11.127  15.013   4.473  0.1286  0.4689  0.1294
    1DPPC   NC318085  18.463  19.394   2.606  0.0189  0.1500 -0.2501
    1DPPC   PO418086  18.570  19.760   2.776 -0.0692  0.1359  0.1126
    1DPPC   GL118087  18.464  19.691   3.086  0.2572 -0.0685 -0.2537
    1DPPC   GL218088  18.468  19.891   3.324 -0.2531 -0.5294  0.1293
    1DPPC   C1A18089  18.210  19.418   3.394 -0.1681 -0.1461  0.0096
    1DPPC   C2A18090  18.192  19.290   3.837  0.2942 -0.0861  0.2937
    1DPPC   C3A18091  18.053  19.346   4.240 -0.0904  0.1775 -0.0741
    1DPPC   C4A18092  17.948  19.296   4.700 -0.1115  0.0016  0.2679
    1DPPC   C1B18093  18.495  19.723   3.702  0.3703 -0.1618  0.0429
    1DPPC   C2B18094  18.584  19.579   4.177 -0.1343 -0.1142 -0.1511
    1DPPC   C3B18095  18.522  19.522   4.571 -0.0024  0.1877 -0.2503
    1DPPC   C4B18096  18.235  19.668   4.927  0.1916  0.0375  0.0348
    1DPPC   NC318097  11.059   9.950   2.741 -0.1054 -0.0668  0.3663
    1DPPC   PO418098  11.458  10.090   2.736 -0.1323  0.0999  0.1314
    1DPPC   GL118099  11.512  10.023   3.123 -0.0881 -0.1056 -0.0600
    1DPPC   GL218100  11.840  10.060   3.085  0.1110 -0.1441 -0.0729
    1DPPC   C1A18101  11.458   9.964   3.603  0.0572 -0.1847 -0.2184
    1DPPC   C2A18102  11.527  10.083   4.002 -0.1362  0.1595  0.0582
    1DPPC   C3A18103  11.563  10.077   4.406  0.2422  0.1950  0.0850
    1DPPC   C4A18104  11.676  10.049   4.869  0.3574 -0.1001  0.1732
    1DPPC   C1B18105  11.995   9.816   3.438 -0.1047 -0.1015  0.2107
    1DPPC   C2B18106  11.956   9.707   3.838  0.0912 -0.1253  0.2414
    1DPPC   C3B18107  12.058   9.839   4.195 -0.2825 -0.2292  0.0046
    1DPPC   C4B18108  12.109   9.864   4.683 -0.4741 -0.2279 -0.2111
    1DPPC   NC318109   9.441  10.684   2.794  0.1117 -0.0898 -0.1812
    1DPPC   PO418110   9.629  10.388   3.117  0.1191 -0.0498 -0.1417
    1DPPC   GL118111   9.651  10.488   3.574 -0.3791 -0.1721 -0.2943
    1DPPC   GL218112   9.649  10.749   3.667  0.0418 -0.1254 -0.3416
    1DPPC   C1A18113   9.507  10.323   3.886 -0.0602 -0.1309 -0.1524
    1DPPC   C2A18114   9.601  10.349   4.275 -0.2894  0.0927 -0.1053
    1DPPC   C3A18115   9.623  10.344   4.696 -0.0623  0.0899  0.1246
    1DPPC   C4A18116   9.776  10.470   5.042  0.0654  0.1010 -0.1959
    1DPPC   C1B18117   9.684  10.838   4.052  0.2347  0.1940 -0.1331
    1DPPC   C2B18118   9.601  10.811   4.505 -0.1448  0.2124 -0.2350
    1DPPC   C3B18119   9.587  10.949   4.913  0.2171  0.2123  0.0236
    1DPPC   C4B18120   9.766  10.899   5.381  0.0784  0.0880  0.0790
    1DPPC   NC318121  25.770  14.767   2.356 -0.1141  0.1302  0.0388
    1DPPC   PO418122  25.531  14.910   2.547 -0.0301  0.0595 -0.1277
    1DPPC   GL118123  25.423  14.938   2.951  0.1155  0.0797  0.3556
    1DPPC   GL218124  25.393  15.301   2.978  0.2300 -0.0885  0.1711
    1DPPC   C1A18125  25.542  14.668   3.252 -0.1170 -0.5895 -0.0991
    1DPPC   C2A18126  25.395  14.469   3.635  0.0496  0.1625  0.1625
    1DPPC   C3A18127  25.628  14.490   4.001 -0.2073 -0.0641 -0.3357
    1DPPC   C4A18128  25.679  14.853   4.234 -0.2559  0.1823  0.0233
    1DPPC   C1B18129  25.254  15.347   3.361  0.0541  0.0780 -0.1653
    1DPPC   C2B18130  24.969  15.380   3.599  0.0054 -0.2639  0.3718
    1DPPC   C3B18131  24.736  15.223   3.986 -0.2118 -0.4276  0.3283
    1DPPC   C4B18132  24.847  14.900   4.206  0.2046  0.1294 -0.0591
    1DPPC   NC318133  19.062  16.288   2.305 -0.2139 -0.0007 -0.1450
    1DPPC   PO418134  18.747  16.663   2.204  0.1879  0.0584 -0.2076
    1DPPC   GL118135  18.611  16.556   2.591 -0.1463 -0.1217  0.0659
    1DPPC   GL218136  18.318  16.817   2.707 -0.1614  0.2240 -0.0975
    1DPPC   C1A18137  18.781  16.222   2.923  0.0649  0.0697  0.0117
    1DPPC   C2A18138  18.844  16.069   3.407 -0.2396  0.2408  0.2533
    1DPPC   C3A18139  18.707  16.019   3.832 -0.0280 -0.2663 -0.0274
    1DPPC   C4A18140  18.652  15.939   4.377 -0.1149 -0.2368 -0.1644
    1DPPC   C1B18141  18.532  16.612   3.077  0.0678 -0.0134 -0.1120
    1DPPC   C2B18142  18.498  16.516   3.426  0.1070 -0.1591  0.0677
    1DPPC   C3B18143  18.376  16.443   3.832  0.0448 -0.1943 -0.2930
    1DPPC   C4B18144  18.334  16.431   4.345 -0.0606  0.0512  0.0172
    1DPPC   NC318145   9.157  18.751   2.018  0.1885  0.0851  0.0687
    1DPPC   PO418146   9.671  18.854   2.161  0.1300 -0.0147  0.2622
    1DPPC   GL118147   9.490  18.744   2.576 -0.0083  0.3637 -0.0281
    1DPPC   GL218148   9.688  18.343   2.619  0.1271 -0.1462  0.1566
    1DPPC   C1A18149   9.427  18.615   3.007 -0.1054  0.1153 -0.2092
    1DPPC   C2A18150   9.343  18.719   3.488  0.2373  0.0139 -0.0497
    1DPPC   C3A18151   9.167  18.728   3.930 -0.1259 -0.1088  0.0839
    1DPPC   C4A18152   8.804  18.541   4.228 -0.0985 -0.0293  0.2514
    1DPPC   C1B18153   9.607  18.220   2.966 -0.0635  0.1604  0.0247
    1DPPC   C2B18154   9.525  18.251   3.390  0.1230  0.2026  0.2151
    1DPPC   C3B18155   9.414  18.268   3.871 -0.1123  0.2897 -0.0970
    1DPPC   C4B18156   9.198  18.052   4.190 -0.0735 -0.0141  0.0719
    1DPPC   NC318157  18.019  16.826   2.289  0.0805 -0.0041 -0.1162
    1DPPC   PO418158  17.718  17.185   2.380  0.1309 -0.0914  0.1067
    1DPPC   GL118159  17.356  16.968   2.644  0.1860  0.0502  0.1221
    1DPPC   GL218160  17.057  16.902   2.603  0.0469  0.1418 -0.2121
    1DPPC   C1A18161  17.416  16.635   2.926 -0.0305 -0.1986 -0.0680
    1DPPC   C2A18162  17.402  16.604   3.293 -0.3285  0.4197  0.0487
    1DPPC   C3A18163  17.419  16.576   3.753 -0.1122  0.1114 -0.2795
    1DPPC   C4A18164  17.400  16.581   4.153  0.0736  0.4882  0.0420
    1DPPC   C1B18165  17.052  17.042   3.020 -0.2375 -0.1959 -0.2181
    1DPPC   C2B18166  17.264  17.148   3.394  0.0039 -0.1386 -0.0819
    1DPPC   C3B18167  17.221  17.050   3.857  0.0604 -0.0500  0.0552
    1DPPC   C4B18168  17.234  16.990   4.336  0.1040 -0.2479 -0.1289
    1DPPC   NC318169   7.792  11.818   3.073  0.0792 -0.1922 -0.0669
    1DPPC   PO418170   8.034  11.434   3.138 -0.3723  0.0189  0.3906
    1DPPC   GL118171   8.123  11.594   3.439  0.1896 -0.3014  0.5397
    1DPPC   GL218172   8.055  11.904   3.510 -0.1979 -0.2000 -0.0379
    1DPPC   C1A18173   8.069  11.581   3.872 -0.4450 -0.2725 -0.1025
    1DPPC   C2A18174   8.065  11.669   4.300  0.0275 -0.2631 -0.0464
    1DPPC   C3A18175   8.047  11.510   4.621 -0.0041  0.1305  0.1503
    1DPPC   C4A18176   8.006  11.191   4.998 -0.0820  0.0810  0.0295
    1DPPC   C1B18177   8.106  12.076   3.963 -0.2812  0.0174 -0.0561
    1DPPC   C2B18178   8.135  12.124   4.483  0.2126  0.1512 -0.1736
    1DPPC   C3B18179   7.857  12.130   4.801 -0.4461 -0.0874  0.2299
    1DPPC   C4B18180   7.828  11.771   5.014 -0.2511 -0.1817  0.2777
    1DPPC   NC318181  21.250  10.073   1.947 -0.0521 -0.0627 -0.0686
    1DPPC   PO418182  21.519  10.435   2.126 -0.1777 -0.0014 -0.0079
    1DPPC   GL118183  21.435  10.363   2.551 -0.1227  0.1467 -0.1807
    1DPPC   GL218184  21.617  10.207   2.688 -0.0538  0.0151 -0.0209
    1DPPC   C1A18185  21.150  10.346   2.716  0.3263 -0.3170  0.2848
    1DPPC   C2A18186  21.013  10.414   3.088  0.2820 -0.2117 -0.1305
    1DPPC   C3A18187  20.604  10.254   3.279 -0.0671 -0.0665 -0.1113
    1DPPC   C4A18188  20.513  10.128   3.690 -0.0249 -0.5720 -0.2471
    1DPPC   C1B18189  21.376  10.063   3.011 -0.2385 -0.0825 -0.0422
    1DPPC   C2B18190  21.393   9.707   3.247 -0.1775  0.0526 -0.1338
    1DPPC   C3B18191  21.197   9.493   3.561 -0.2106  0.0873 -0.3821
    1DPPC   C4B18192  21.114   9.331   3.975 -0.1108 -0.0197 -0.0238
    1DPPC   NC318193  18.951  18.671   2.058  0.0096  0.1532  0.0130
    1DPPC   PO418194  19.240  18.952   2.394 -0.0941 -0.1166 -0.2374
    1DPPC   GL118195  19.185  18.710   2.771 -0.1445 -0.0164 -0.3840
    1DPPC   GL218196  19.083  18.942   2.959 -0.1135  0.0934 -0.0854
    1DPPC   C1A18197  19.483  18.560   3.049 -0.0788 -0.0196 -0.0440
    1DPPC   C2A18198  19.587  18.456   3.490 -0.1644 -0.1258  0.0626
    1DPPC   C3A18199  19.491  18.443   3.918 -0.3077  0.0061  0.0184
    1DPPC   C4A18200  19.511  18.434   4.344  0.1429 -0.0634 -0.2028
    1DPPC   C1B18201  19.108  18.905   3.475  0.1305 -0.2881  0.0618
    1DPPC   C2B18202  19.130  18.771   3.906  0.0351  0.1054 -0.1525
    1DPPC   C3B18203  19.054  18.823   4.406  0.0041 -0.2534 -0.0835
    1DPPC   C4B18204  18.703  18.889   4.775  0.1795  0.1864  0.0740
    1DPPC   NC318205   9.216   8.050   3.352  0.1580 -0.3731  0.0740
    1DPPC   PO418206   9.532   8.323   3.321  0.2081 -0.0648  0.0419
    1DPPC   GL118207   9.495   8.237   3.785 -0.2602  0.0189 -0.1283
    1DPPC   GL218208   9.242   8.091   3.916 -0.1449  0.1125  0.0023
    1DPPC   C1A18209   9.538   8.239   4.286  0.0800 -0.1373  0.4888
    1DPPC   C2A18210   9.324   8.301   4.752  0.3375  0.2496  0.3026
    1DPPC   C3A18211   9.203   8.381   5.128  0.0124 -0.0285 -0.2209
    1DPPC   C4A18212   8.887   8.524   5.394  0.0136 -0.0323  0.0227
    1DPPC   C1B18213   9.086   7.991   4.253 -0.2343 -0.1978  0.0480
    1DPPC   C2B18214   8.929   8.072   4.692  0.0941 -0.0678 -0.0616
    1DPPC   C3B18215   8.789   8.175   5.043 -0.0346  0.0031  0.1856
    1DPPC   C4B18216   8.863   7.998   5.440  0.1692  0.1355 -0.0803
    1DPPC   NC318217  23.690  15.247   2.366 -0.1898 -0.2188 -0.3487
    1DPPC   PO418218  24.005  14.870   2.407 -0.2246  0.0384 -0.2049
    1DPPC   GL118219  23.931  15.026   2.834  0.0099 -0.3809 -0.3544
    1DPPC   GL218220  23.936  15.417   2.742  0.1839  0.0892 -0.4086
    1DPPC   C1A18221  24.010  15.024   3.327 -0.2368 -0.0895  0.0026
    1DPPC   C2A18222  23.926  15.085   3.756  0.1848  0.0558 -0.0247
    1DPPC   C3A18223  23.776  14.992   4.181 -0.3672  0.0990 -0.1980
    1DPPC   C4A18224  23.588  15.166   4.543  0.2084  0.2720 -0.1033
    1DPPC   C1B18225  23.685  15.353   3.132  0.0476 -0.2146 -0.1013
    1DPPC   C2B18226  23.574  15.213   3.477 -0.1691 -0.1785  0.2582
    1DPPC   C3B18227  23.199  15.114   3.661  0.0643 -0.0869  0.0686
    1DPPC   C4B18228  23.008  15.228   4.003  0.5729 -0.1073  0.1517
    1DPPC   NC318229  16.112  19.913   2.516 -0.1525  0.2203 -0.0384
    1DPPC   PO418230  16.386  19.767   2.735 -0.3943  0.2115 -0.0300
    1DPPC   GL118231  16.360  19.859   3.140 -0.0149  0.0795  0.2779
    1DPPC   GL218232  16.428  20.143   3.119 -0.0707  0.1063 -0.0015
    1DPPC   C1A18233  16.305  19.921   3.554  0.0158 -0.1077 -0.0775
    1DPPC   C2A18234  16.273  19.911   3.939 -0.2095 -0.2073  0.3071
    1DPPC   C3A18235  16.161  20.205   4.318  0.1206 -0.1354  0.1413
    1DPPC   C4A18236  16.101  20.611   4.524 -0.1255  0.1083  0.1321
    1DPPC   C1B18237  16.476  20.366   3.544  0.1225  0.0090  0.2324
    1DPPC   C2B18238  16.546  20.337   4.006  0.2144  0.1734 -0.0253
    1DPPC   C3B18239  16.579  20.448   4.389  0.1366 -0.3896  0.0411
    1DPPC   C4B18240  16.821  20.558   4.786  0.0771  0.1152  0.0558
    1DPPC   NC318241  14.118  20.608   2.201  0.0498 -0.1298 -0.0811
    1DPPC   PO418242  14.190  20.282   2.024  0.3591  0.0408  0.2338
    1DPPC   GL118243  14.507  20.222   2.365 -0.1327 -0.2250  0.0695
    1DPPC   GL218244  14.577  20.518   2.497 -0.1076  0.1033 -0.2382
    1DPPC   C1A18245  14.448  20.050   2.897  0.0721  0.1542  0.1642
    1DPPC   C2A18246  14.324  19.771   3.295  0.1070  0.0144 -0.1362
    1DPPC   C3A18247  14.261  19.917   3.720 -0.2453 -0.1155 -0.0665
    1DPPC   C4A18248  14.154  19.999   4.096  0.2398 -0.0849  0.1132
    1DPPC   C1B18249  14.743  20.467   2.947  0.0341 -0.0359  0.1085
    1DPPC   C2B18250  14.652  20.183   3.359 -0.0886  0.2592  0.5543
    1DPPC   C3B18251  14.678  20.226   3.718 -0.1744 -0.0008 -0.1625
    1DPPC   C4B18252  14.648  20.019   4.074  0.3125 -0.0657  0.1221
    1DPPC   NC318253  11.837  16.888   1.278  0.2018  0.2277  0.0321
    1DPPC   PO418254  11.577  16.920   1.726  0.1978 -0.3773 -0.1845
    1DPPC   GL118255  11.767  17.033   2.211 -0.1293  0.0764  0.1074
    1DPPC   GL218256  12.022  16.866   2.420 -0.0418  0.1534 -0.1193
    1DPPC   C1A18257  11.555  16.965   2.641  0.1377  0.0667  0.1064
    1DPPC   C2A18258  11.361  17.006   3.029  0.0132  0.0164  0.1385
    1DPPC   C3A18259  11.287  17.016   3.464 -0.1433  0.1224 -0.0887
    1DPPC   C4A18260  11.154  17.118   3.826 -0.0313 -0.0225 -0.0415
    1DPPC   C1B18261  12.050  16.804   2.863  0.0216 -0.0521 -0.0936
    1DPPC   C2B18262  12.049  16.755   3.265 -0.1832 -0.2703  0.0674
    1DPPC   C3B18263  12.086  16.825   3.686 -0.1916 -0.6680 -0.0032
    1DPPC   C4B18264  11.968  16.883   4.125 -0.1544 -0.0047  0.0047
    1DPPC   NC318265  27.774  23.950   2.796  0.0509  0.1279 -0.0292
    1DPPC   PO418266  28.010  24.241   2.883 -0.1588  0.4516 -0.0972
    1DPPC   GL118267  27.830  24.251   3.261  0.1105 -0.2824 -0.2179
    1DPPC   GL218268  27.451  24.084   3.299 -0.1432  0.1232 -0.2791
    1DPPC   C1A18269  27.628  24.357   3.638  0.2030 -0.0644  0.0536
    1DPPC   C2A18270  27.430  24.599   3.995 -0.0009 -0.0685  0.1835
    1DPPC   C3A18271  27.488  24.519   4.372 -0.0473 -0.1053  0.0949
    1DPPC   C4A18272  27.361  24.452   4.793  0.1919 -0.2401  0.0180
    1DPPC   C1B18273  27.309  23.970   3.613 -0.0364  0.0040 -0.1114
    1DPPC   C2B18274  27.299  24.063   4.059  0.1005 -0.2928  0.3633
    1DPPC   C3B18275  27.421  23.997   4.460  0.2879  0.2684  0.0412
    1DPPC   C4B18276  27.718  23.616   4.515 -0.1479 -0.1922 -0.1798
    1DPPC   NC318277  20.647  17.913   2.525  0.1721 -0.1789  0.0832
    1DPPC   PO418278  20.953  17.697   2.385  0.1490 -0.1354  0.1030
    1DPPC   GL118279  21.063  17.681   2.809 -0.2214 -0.2164 -0.0915
    1DPPC   GL218280  21.273  17.485   2.852  0.2858 -0.0801 -0.0283
    1DPPC   C1A18281  20.989  17.778   3.272 -0.2174 -0.0694  0.0511
    1DPPC   C2A18282  21.007  17.715   3.735  0.0707 -0.2270 -0.1594
    1DPPC   C3A18283  21.262  17.545   4.127 -0.0954 -0.3025  0.1772
    1DPPC   C4A18284  21.312  17.722   4.485  0.1334 -0.0287 -0.2047
    1DPPC   C1B18285  21.403  17.497   3.271 -0.3729  0.0111 -0.3486
    1DPPC   C2B18286  21.495  17.362   3.701 -0.0149  0.0519 -0.1057
    1DPPC   C3B18287  21.599  17.192   4.201 -0.1810  0.1158 -0.3729
    1DPPC   C4B18288  21.696  16.903   4.569 -0.0519  0.0409  0.2845
    1DPPC   NC318289  14.404  11.989   2.411 -0.3042 -0.0855 -0.0750
    1DPPC   PO418290  14.774  12.164   2.315  0.1608 -0.2020  0.2536
    1DPPC   GL118291  14.490  12.417   2.667  0.2275 -0.0701  0.0183
    1DPPC   GL218292  14.075  12.553   2.666  0.0970 -0.1475  0.0217
    1DPPC   C1A18293  14.246  12.434   3.075 -0.4957  0.1127 -0.4573
    1DPPC   C2A18294  14.222  12.133   3.432  0.1328 -0.0750  0.2073
    1DPPC   C3A18295  14.248  11.954   3.865 -0.2284  0.0226  0.1087
    1DPPC   C4A18296  14.380  11.999   4.285 -0.1467 -0.0814 -0.0519
    1DPPC   C1B18297  13.959  12.859   2.909 -0.2030 -0.2329  0.0647
    1DPPC   C2B18298  13.763  12.691   3.286  0.0939  0.0121  0.0438
    1DPPC   C3B18299  13.710  12.244   3.163  0.0527 -0.1394  0.1253
    1DPPC   C4B18300  13.330  12.013   2.922 -0.0795 -0.0948 -0.1133
    1DPPC   NC318301  16.524  17.421   2.251 -0.2433 -0.0278  0.0509
    1DPPC   PO418302  16.672  17.025   2.339 -0.0036 -0.0492 -0.0720
    1DPPC   GL118303  16.741  17.257   2.716 -0.0121 -0.0423  0.2220
    1DPPC   GL218304  16.974  17.573   2.850  0.1393  0.1056  0.0942
    1DPPC   C1A18305  16.591  17.085   3.175 -0.0933 -0.4011 -0.3275
    1DPPC   C2A18306  16.682  17.127   3.594  0.1420 -0.2921  0.0136
    1DPPC   C3A18307  16.773  17.174   3.986 -0.0208 -0.1517 -0.2334
    1DPPC   C4A18308  16.777  17.293   4.460 -0.0785  0.2203  0.2097
    1DPPC   C1B18309  16.922  17.465   3.272 -0.1478 -0.0026  0.1188
    1DPPC   C2B18310  16.979  17.548   3.618  0.3372 -0.1951  0.0060
    1DPPC   C3B18311  17.033  17.542   4.078  0.0173 -0.0354  0.1763
    1DPPC   C4B18312  17.127  17.640   4.527  0.3461  0.0371  0.1823
    1DPPC   NC318313   9.609  13.276   2.666 -0.0943 -0.0745  0.1088
    1DPPC   PO418314   9.271  13.213   2.898 -0.1284 -0.1205 -0.1639
    1DPPC   GL118315   9.171  13.542   3.309 -0.1177 -0.0194  0.1980
    1DPPC   GL218316   9.291  13.846   3.289  0.1279 -0.0449  0.0890
    1DPPC   C1A18317   9.293  13.494   3.792 -0.2277  0.2391 -0.1361
    1DPPC   C2A18318   9.321  13.667   4.144 -0.1137 -0.0524  0.3251
    1DPPC   C3A18319   9.240  13.705   4.487  0.3188  0.0378 -0.0539
    1DPPC   C4A18320   9.295  13.616   4.913 -0.0139 -0.1613  0.1450
    1DPPC   C1B18321   9.284  14.041   3.707 -0.2806  0.0468 -0.0315
    1DPPC   C2B18322   9.338  14.145   4.013  0.0958 -0.0628  0.0282
    1DPPC   C3B18323   9.503  14.156   4.368 -0.1819 -0.0111  0.3635
    1DPPC   C4B18324   9.840  14.275   4.445  0.2605 -0.3462  0.0234
    1DPPC   NC318325  16.349  14.782   1.908  0.2265  0.0027  0.0566
    1DPPC   PO418326  16.157  15.138   2.038  0.1193 -0.1310 -0.0086
    1DPPC   GL118327  15.967  15.142   2.409 -0.0963  0.2539 -0.0543
    1DPPC   GL218328  15.762  14.906   2.523 -0.1930 -0.0584  0.0457
    1DPPC   C1A18329  16.025  15.306   2.783  0.0652  0.3586 -0.0591
    1DPPC   C2A18330  16.069  15.376   3.158 -0.2167 -0.1943 -0.0224
    1DPPC   C3A18331  16.230  15.357   3.544 -0.2814  0.0036  0.2027
    1DPPC   C4A18332  16.211  15.269   3.906  0.0293 -0.1003  0.3623
    1DPPC   C1B18333  15.685  14.994   2.899  0.2286  0.0671 -0.2910
    1DPPC   C2B18334  15.662  15.012   3.272  0.0357 -0.0215  0.1576
    1DPPC   C3B18335  15.863  15.085   3.617 -0.0350 -0.1935  0.0024
    1DPPC   C4B18336  15.693  15.030   3.929 -0.0150 -0.1556  0.0714
    1DPPC   NC318337  12.168   9.500   2.934  0.2388 -0.1706  0.2343
    1DPPC   PO418338  12.324   9.932   2.856 -0.0908  0.1357  0.2559
    1DPPC   GL118339  12.436   9.981   3.258  0.1419 -0.0520  0.1810
    1DPPC   GL218340  12.593  10.291   3.371  0.1733 -0.0143  0.0573
    1DPPC   C1A18341  12.262  10.173   3.724  0.0381 -0.0819 -0.0579
    1DPPC   C2A18342  12.428  10.312   4.154 -0.1436  0.1303 -0.1614
    1DPPC   C3A18343  12.516  10.068   4.448  0.2054 -0.1561  0.0517
    1DPPC   C4A18344  12.611   9.952   4.898  0.0235  0.0273 -0.2048
    1DPPC   C1B18345  12.671  10.488   3.734 -0.0601  0.2429 -0.1420
    1DPPC   C2B18346  12.886  10.576   4.087  0.0882  0.0611 -0.2472
    1DPPC   C3B18347  12.871  10.609   4.494  0.1127 -0.1899  0.0961
    1DPPC   C4B18348  12.495  10.549   4.745  0.1573  0.0603  0.0438
    1DPPC   NC318349  12.117  11.598   2.361 -0.1701  0.2311 -0.0364
    1DPPC   PO418350  12.413  11.642   2.673 -0.1422 -0.1127  0.0666
    1DPPC   GL118351  12.523  11.777   3.102 -0.0131 -0.1459  0.0822
    1DPPC   GL218352  12.757  11.975   3.220 -0.1754 -0.3076  0.0188
    1DPPC   C1A18353  12.469  11.856   3.574 -0.1127 -0.3578 -0.3090
    1DPPC   C2A18354  12.509  11.983   3.998 -0.3343 -0.1354 -0.0829
    1DPPC   C3A18355  12.408  12.072   4.426  0.0112 -0.0970 -0.0785
    1DPPC   C4A18356  12.153  12.267   4.821  0.1905  0.0392  0.1381
    1DPPC   C1B18357  12.899  12.080   3.637  0.0599  0.1990 -0.1559
    1DPPC   C2B18358  12.996  12.095   4.052  0.0971 -0.0807  0.1003
    1DPPC   C3B18359  12.945  11.985   4.476  0.2400 -0.3043 -0.0309
    1DPPC   C4B18360  12.796  12.065   4.828 -0.1596  0.1136 -0.0472
    1DPPC   NC318361  23.049  20.268   3.227 -0.2562  0.1192 -0.2662
    1DPPC   PO418362  22.937  19.978   2.927  0.0082 -0.2186  0.0648
    1DPPC   GL118363  22.708  19.837   3.218  0.0040  0.3580  0.2214
    1DPPC   GL218364  22.555  20.038   3.268 -0.0056  0.0195 -0.1420
    1DPPC   C1A18365  22.858  19.657   3.624  0.1355 -0.1683 -0.0618
    1DPPC   C2A18366  22.937  19.760   4.047 -0.2731  0.2118  0.3185
    1DPPC   C3A18367  23.236  19.743   4.269  0.2485  0.0031  0.0762
    1DPPC   C4A18368  23.587  19.601   4.488  0.1605 -0.0914  0.2232
    1DPPC   C1B18369  22.487  19.987   3.714  0.0951  0.2217  0.1198
    1DPPC   C2B18370  22.415  19.775   4.249 -0.0286 -0.3558 -0.0398
    1DPPC   C3B18371  22.270  19.411   4.376 -0.0748 -0.1213  0.2179
    1DPPC   C4B18372  21.892  19.096   4.326 -0.0768  0.4863 -0.1807
    1DPPC   NC318373  12.592   6.731   3.322 -0.0824  0.3992  0.2953
    1DPPC   PO418374  12.868   6.481   3.074  0.2784  0.1169 -0.0941
    1DPPC   GL118375  12.993   6.451   3.547  0.0848 -0.2439 -0.1945
    1DPPC   GL218376  12.605   6.303   3.494 -0.2635  0.1573 -0.1471
    1DPPC   C1A18377  12.951   6.616   3.955 -0.0789 -0.0313 -0.3297
    1DPPC   C2A18378  12.937   6.794   4.332 -0.1155  0.2096  0.0771
    1DPPC   C3A18379  13.117   7.140   4.481 -0.2199  0.0674  0.0938
    1DPPC   C4A18380  13.442   7.399   4.566 -0.1281 -0.1930  0.2381
    1DPPC   C1B18381  12.725   6.223   3.913  0.1742  0.2169 -0.1209
    1DPPC   C2B18382  12.818   6.327   4.293 -0.3038  0.0935 -0.1525
    1DPPC   C3B18383  13.117   6.437   4.627  0.0563  0.3783 -0.2213
    1DPPC   C4B18384  13.599   6.413   4.773 -0.0080  0.1814 -0.0499
    1DPPC   NC318385   6.970  26.830   2.141  0.1305 -0.1556  0.2779
    1DPPC   PO418386   7.096  26.870   2.557  0.1589  0.3841 -0.1960
    1DPPC   GL118387   7.036  26.751   3.003 -0.0818  0.0365 -0.0972
    1DPPC   GL218388   7.073  26.300   2.984 -0.0591 -0.3031  0.0405
    1DPPC   C1A18389   6.964  26.527   3.410  0.1067 -0.1816 -0.1160
    1DPPC   C2A18390   6.814  26.445   3.825  0.0216  0.2286 -0.0783
    1DPPC   C3A18391   6.877  26.228   4.321 -0.1552  0.2730  0.0351
    1DPPC   C4A18392   6.913  26.028   4.673  0.3918  0.3231  0.2458
    1DPPC   C1B18393   7.340  26.214   3.302  0.2863 -0.2396  0.1953
    1DPPC   C2B18394   7.250  26.184   3.731 -0.0410 -0.2042  0.2087
    1DPPC   C3B18395   7.226  25.916   4.032  0.3184 -0.0359  0.0800
    1DPPC   C4B18396   7.351  25.875   4.441 -0.1908 -0.0670 -0.3990
    1DPPC   NC318397  22.164  16.717   1.759  0.1943  0.0163  0.2013
    1DPPC   PO418398  22.501  16.537   2.012 -0.0751  0.0513  0.1402
    1DPPC   GL118399  22.254  16.561   2.414 -0.0437  0.1852  0.2392
    1DPPC   GL218400  22.558  16.390   2.433  0.0615  0.2061  0.0501
    1DPPC   C1A18401  22.398  16.764   2.741  0.1696  0.1403 -0.1235
    1DPPC   C2A18402  22.533  16.539   3.115 -0.0549 -0.1028  0.2694
    1DPPC   C3A18403  22.548  16.597   3.595 -0.0885 -0.0164  0.1068
    1DPPC   C4A18404  22.424  16.661   3.917  0.0855  0.1338 -0.0565
    1DPPC   C1B18405  22.389  16.160   2.834 -0.0385 -0.0766  0.1820
    1DPPC   C2B18406  22.046  16.136   3.107 -0.0629 -0.2359 -0.0568
    1DPPC   C3B18407  21.942  15.977   3.440 -0.0051 -0.1034  0.1029
    1DPPC   C4B18408  22.037  15.782   3.812 -0.0094  0.0234  0.0297
    1DPPC   NC318409   9.730  25.756   2.267  0.2957 -0.0204  0.0543
    1DPPC   PO418410  10.019  25.717   2.503 -0.0714  0.0638 -0.3747
    1DPPC   GL118411  10.228  25.818   2.899  0.0617  0.1057 -0.0145
    1DPPC   GL218412  10.036  25.898   3.132  0.0649 -0.0556  0.0625
    1DPPC   C1A18413  10.464  26.037   3.219  0.3030  0.0726  0.1049
    1DPPC   C2A18414  10.660  26.042   3.616  0.1846 -0.0728  0.0630
    1DPPC   C3A18415  10.788  25.723   3.899  0.2121  0.1319  0.1127
    1DPPC   C4A18416  11.030  25.337   3.984  0.0638 -0.1119 -0.1733
    1DPPC   C1B18417  10.271  25.725   3.555  0.0349  0.1376 -0.1958
    1DPPC   C2B18418  10.313  25.528   3.964  0.0487 -0.0145  0.2858
    1DPPC   C3B18419   9.886  25.463   4.137 -0.0495  0.1395 -0.1022
    1DPPC   C4B18420   9.639  25.126   4.357  0.3959 -0.0935 -0.2306
    1DPPC   NC318421  14.024   7.367   3.149  0.1174 -0.2835  0.4455
    1DPPC   PO418422  14.542   7.433   3.029  0.0608 -0.2116 -0.0750
    1DPPC   GL118423  14.554   7.522   3.536  0.1232  0.1757 -0.1560
    1DPPC   GL218424  14.275   7.449   3.629  0.0601 -0.2148 -0.0357
    1DPPC   C1A18425  14.663   7.709   3.911  0.2576  0.1483  0.2160
    1DPPC   C2A18426  14.708   7.902   4.338  0.0302  0.1571  0.2090
    1DPPC   C3A18427  14.973   8.207   4.413  0.0507 -0.1050 -0.0410
    1DPPC   C4A18428  15.424   8.320   4.550  0.1199  0.1223 -0.1909
    1DPPC   C1B18429  14.292   7.452   4.087  0.1606 -0.1795 -0.5077
    1DPPC   C2B18430  14.260   7.078   4.353 -0.2234  0.1667 -0.3524
    1DPPC   C3B18431  14.501   6.852   4.644 -0.0660  0.1053 -0.2775
    1DPPC   C4B18432  14.589   6.538   4.954  0.1975 -0.1580 -0.0450
    1DPPC   NC318433   9.467  14.735   2.224  0.0144  0.0361  0.2554
    1DPPC   PO418434   9.274  14.438   2.462  0.2461  0.0042  0.2858
    1DPPC   GL118435   9.013  14.250   2.805 -0.1562 -0.1080  0.0660
    1DPPC   GL218436   9.172  14.558   2.990 -0.1468  0.1879  0.0921
    1DPPC   C1A18437   8.827  14.147   3.230 -0.6449 -0.1962  0.4280
    1DPPC   C2A18438   8.784  14.249   3.656 -0.0108 -0.0450  0.3541
    1DPPC   C3A18439   8.977  14.461   3.936  0.0874 -0.0264 -0.0246
    1DPPC   C4A18440   9.194  14.596   4.279  0.0979 -0.0960 -0.1702
    1DPPC   C1B18441   9.246  14.434   3.354 -0.2030  0.0739  0.0498
    1DPPC   C2B18442   9.341  14.635   3.686 -0.2659 -0.3252  0.1412
    1DPPC   C3B18443   9.054  14.992   3.863  0.3971  0.0394  0.1069
    1DPPC   C4B18444   8.749  14.843   4.160  0.0461  0.0232  0.1636
    1DPPC   NC318445   8.146  19.140   2.118  0.0861  0.0223  0.2424
    1DPPC   PO418446   7.953  19.454   2.444  0.1918 -0.3027 -0.0855
    1DPPC   GL118447   8.066  19.520   2.771  0.1619 -0.3023  0.0885
    1DPPC   GL218448   8.173  19.858   2.741  0.0005 -0.0190 -0.0144
    1DPPC   C1A18449   8.034  19.484   3.205 -0.1742  0.1122 -0.0397
    1DPPC   C2A18450   7.991  19.434   3.622 -0.0124  0.0640 -0.0379
    1DPPC   C3A18451   8.020  19.301   4.029  0.2007 -0.0012 -0.1463
    1DPPC   C4A18452   8.031  19.389   4.522  0.0627 -0.1058 -0.0705
    1DPPC   C1B18453   8.359  19.837   3.158 -0.4829 -0.0984  0.3394
    1DPPC   C2B18454   8.553  20.021   3.547  0.1386  0.2624 -0.1954
    1DPPC   C3B18455   8.670  19.993   3.922  0.1742  0.0821  0.2758
    1DPPC   C4B18456   8.930  20.039   4.206  0.0159  0.1226 -0.0677
    1DPPC   NC318457  15.636  11.677   2.361  0.0053 -0.0199  0.0109
    1DPPC   PO418458  15.835  12.067   2.480 -0.0233  0.1275 -0.1374
    1DPPC   GL118459  15.791  11.872   2.872 -0.2894 -0.0802  0.0747
    1DPPC   GL218460  15.680  11.733   2.837  0.0920  0.0060 -0.2558
    1DPPC   C1A18461  16.008  11.714   3.265  0.0319 -0.1678 -0.1682
    1DPPC   C2A18462  16.269  11.765   3.628  0.0481 -0.1558 -0.0885
    1DPPC   C3A18463  16.226  11.806   4.119  0.2866  0.3310  0.0387
    1DPPC   C4A18464  16.442  11.816   4.546 -0.0671 -0.2725 -0.1627
    1DPPC   C1B18465  15.510  11.515   3.135 -0.2673  0.0280  0.0798
    1DPPC   C2B18466  15.417  11.365   3.453 -0.2423 -0.2054  0.2434
    1DPPC   C3B18467  15.424  11.086   3.804  0.1053 -0.0962 -0.0348
    1DPPC   C4B18468  15.397  11.212   4.262  0.2631  0.1631 -0.0198
    1DPPC   NC318469  10.748  14.332   2.586  0.0814  0.2395 -0.0219
    1DPPC   PO418470  10.477  14.666   2.494 -0.2924 -0.0902 -0.2563
    1DPPC   GL118471  10.179  14.611   2.845 -0.1381 -0.0301 -0.0694
    1DPPC   GL218472   9.818  14.634   2.843  0.0271  0.2070 -0.0117
    1DPPC   C1A18473  10.156  14.695   3.299  0.1921  0.0760 -0.1199
    1DPPC   C2A18474  10.057  14.881   3.656  0.3543 -0.0682 -0.4426
    1DPPC   C3A18475  10.135  15.067   4.023  0.1754  0.0953 -0.1226
    1DPPC   C4A18476   9.949  15.124   4.436  0.0435  0.0045 -0.1344
    1DPPC   C1B18477   9.636  14.657   3.162 -0.0439 -0.1613  0.0187
    1DPPC   C2B18478   9.641  14.925   3.414 -0.0329  0.2312 -0.0558
    1DPPC   C3B18479   9.508  15.074   3.840 -0.0234 -0.2891 -0.0636
    1DPPC   C4B18480   9.327  15.188   4.230 -0.1763 -0.3292 -0.0884
    1DPPC   NC318481  11.889  14.924   2.695  0.0423  0.1381  0.1537
    1DPPC   PO418482  11.870  14.595   2.401 -0.1073 -0.0726  0.7627
    1DPPC   GL118483  11.909  14.427   2.827 -0.0745  0.2343 -0.1931
    1DPPC   GL218484  12.028  14.251   3.081 -0.4244 -0.1144  0.0039
    1DPPC   C1A18485  11.836  14.644   3.252  0.3011  0.1130  0.1665
    1DPPC   C2A18486  11.858  14.658   3.723 -0.1393 -0.1873  0.0898
    1DPPC   C3A18487  11.903  14.627   4.103 -0.0002  0.1253  0.1574
    1DPPC   C4A18488  11.818  14.592   4.552  0.0637 -0.3471  0.0009
    1DPPC   C1B18489  12.067  14.256   3.458  0.0287  0.3401 -0.0475
    1DPPC   C2B18490  12.069  14.190   3.924  0.0513 -0.1952  0.0933
    1DPPC   C3B18491  12.150  14.054   4.352 -0.1133  0.0931  0.1074
    1DPPC   C4B18492  12.428  14.132   4.751 -0.1495 -0.0376 -0.0372
    1DPPC   NC318493  13.914  12.992   2.145 -0.0361 -0.0305  0.1348
    1DPPC   PO418494  14.296  13.265   2.075 -0.0967  0.3220 -0.0138
    1DPPC   GL118495  14.395  12.963   2.391  0.1354  0.0107  0.0029
    1DPPC   GL218496  14.752  12.861   2.393 -0.1633 -0.3032 -0.0068
    1DPPC   C1A18497  14.393  13.062   2.860  0.2604  0.2734  0.2011
    1DPPC   C2A18498  14.344  12.938   3.243 -0.4590 -0.0228  0.2460
    1DPPC   C3A18499  14.104  12.572   3.575 -0.3120 -0.2014  0.1034
    1DPPC   C4A18500  13.837  12.353   3.771  0.0413  0.0089 -0.1228
    1DPPC   C1B18501  14.843  12.762   2.838  0.2175  0.0452  0.2178
    1DPPC   C2B18502  14.785  12.747   3.358 -0.2868 -0.0892 -0.0393
    1DPPC   C3B18503  14.610  12.696   3.757 -0.1261 -0.3555  0.3009
    1DPPC   C4B18504  14.422  12.452   4.042 -0.0454  0.1485 -0.2324
    1DPPC   NC318505  15.966  22.075   2.349 -0.2644  0.3213  0.2331
    1DPPC   PO418506  16.439  22.270   2.417  0.1041 -0.1807 -0.1735
    1DPPC   GL118507  16.198  22.190   2.827  0.2382 -0.0890 -0.0037
    1DPPC   GL218508  16.575  22.061   2.859 -0.2813 -0.1652 -0.0502
    1DPPC   C1A18509  16.194  22.080   3.280  0.1447 -0.0146 -0.1586
    1DPPC   C2A18510  16.088  22.223   3.752 -0.0249 -0.0075 -0.1188
    1DPPC   C3A18511  15.795  22.366   4.041  0.4054  0.0919  0.1086
    1DPPC   C4A18512  15.725  22.250   4.474 -0.2470 -0.4258  0.0550
    1DPPC   C1B18513  16.593  21.765   3.200  0.0595  0.0149  0.0258
    1DPPC   C2B18514  16.545  21.768   3.638 -0.1786  0.0473 -0.2083
    1DPPC   C3B18515  16.691  21.834   4.067  0.1227  0.0467 -0.2492
    1DPPC   C4B18516  16.838  22.108   4.401 -0.0493  0.1891  0.0896
    1DPPC   NC318517   3.728   1.947   3.277  0.3200 -0.3445  0.0987
    1DPPC   PO418518   4.013   2.175   3.467 -0.0131  0.0884  0.2927
    1DPPC   GL118519   3.682   2.124   3.836 -0.0804  0.0220 -0.0544
    1DPPC   GL218520   3.406   2.234   3.676 -0.1943  0.0550  0.3238
    1DPPC   C1A18521   3.543   1.994   4.209  0.0016 -0.0727 -0.0091
    1DPPC   C2A18522   3.404   2.137   4.671  0.1222  0.0904  0.4041
    1DPPC   C3A18523   3.194   2.269   5.062  0.1233 -0.0915  0.1682
    1DPPC   C4A18524   3.068   2.160   5.549 -0.3520 -0.2184 -0.1342
    1DPPC   C1B18525   3.143   2.285   4.021  0.1751 -0.2086 -0.3819
    1DPPC   C2B18526   2.974   2.545   4.341  0.1502 -0.2078 -0.2329
    1DPPC   C3B18527   2.995   2.672   4.764  0.0323  0.0226 -0.1088
    1DPPC   C4B18528   2.715   2.570   5.160  0.0836  0.0624 -0.0593
    1DPPC   NC318529  12.408  18.658   2.342  0.1903 -0.2077 -0.0970
    1DPPC   PO418530  12.447  19.061   2.110  0.0699 -0.2959 -0.2455
    1DPPC   GL118531  12.438  19.159   2.580  0.4146 -0.2423 -0.0126
    1DPPC   GL218532  12.113  19.144   2.751 -0.1200  0.0306  0.1930
    1DPPC   C1A18533  12.432  19.200   3.084 -0.2114  0.2395  0.0297
    1DPPC   C2A18534  12.404  19.195   3.512 -0.1240 -0.4236  0.0865
    1DPPC   C3A18535  12.410  19.070   3.906 -0.0628 -0.0328  0.1024
    1DPPC   C4A18536  12.305  19.199   4.382  0.0072  0.1782  0.1490
    1DPPC   C1B18537  11.926  19.180   3.217 -0.0636 -0.0468  0.0503
    1DPPC   C2B18538  11.934  19.139   3.634 -0.3611 -0.3896  0.3681
    1DPPC   C3B18539  11.932  18.948   4.000 -0.1822 -0.0020 -0.1770
    1DPPC   C4B18540  12.080  18.761   4.314 -0.0562  0.1057  0.1095
    1DPPC   NC318541  11.205  15.120   2.124  0.0040  0.1486  0.2578
    1DPPC   PO418542  11.444  15.180   2.546 -0.1794 -0.4673 -0.2672
    1DPPC   GL118543  11.505  15.069   3.027  0.2181 -0.1843 -0.0247
    1DPPC   GL218544  11.425  14.751   2.947 -0.0285  0.1203 -0.0309
    1DPPC   C1A18545  11.585  15.097   3.429 -0.2385  0.2643 -0.2132
    1DPPC   C2A18546  11.557  15.199   3.868  0.0104 -0.1857 -0.0673
    1DPPC   C3A18547  11.734  15.456   4.108  0.0314 -0.2791 -0.0745
    1DPPC   C4A18548  12.076  15.513   4.449  0.0444  0.1378  0.1256
    1DPPC   C1B18549  11.247  14.577   3.165  0.2416  0.0717  0.3311
    1DPPC   C2B18550  11.276  14.605   3.553  0.2869  0.1285 -0.2047
    1DPPC   C3B18551  11.293  14.758   4.037  0.1401 -0.5033  0.0784
    1DPPC   C4B18552  11.593  14.996   4.351 -0.2349 -0.0403 -0.3967
    1DPPC   NC318553  10.676  13.179   2.707  0.1780  0.1444 -0.0771
    1DPPC   PO418554  10.090  13.101   2.650  0.3459  0.3189 -0.1949
    1DPPC   GL118555   9.965  13.115   3.001 -0.3332  0.3549  0.0243
    1DPPC   GL218556   9.652  12.947   3.122  0.0345  0.2231 -0.2519
    1DPPC   C1A18557  10.150  13.237   3.397  0.1456  0.2572  0.0399
    1DPPC   C2A18558  10.213  13.384   3.887 -0.2394  0.0679  0.2942
    1DPPC   C3A18559  10.360  13.229   4.265  0.1205 -0.0787  0.0199
    1DPPC   C4A18560  10.413  13.299   4.686  0.1894 -0.0578  0.2433
    1DPPC   C1B18561   9.752  12.997   3.502 -0.0984  0.3195 -0.2968
    1DPPC   C2B18562   9.725  13.213   3.881  0.1538 -0.1699  0.4786
    1DPPC   C3B18563   9.628  13.249   4.242 -0.1001  0.0142 -0.0109
    1DPPC   C4B18564   9.534  13.229   4.603 -0.1009  0.3952 -0.1037
    1DPPC   NC318565  13.735  11.341   2.440  0.1437  0.1153 -0.1059
    1DPPC   PO418566  14.082  11.637   2.511 -0.0004 -0.3983 -0.0515
    1DPPC   GL118567  14.372  11.554   2.765  0.0957  0.0887 -0.2658
    1DPPC   GL218568  14.415  11.986   2.938 -0.1408 -0.2257  0.1050
    1DPPC   C1A18569  14.518  11.545   3.296  0.0695  0.0532  0.0626
    1DPPC   C2A18570  14.564  11.603   3.687 -0.0221 -0.0321 -0.4197
    1DPPC   C3A18571  14.698  11.564   4.086  0.0294 -0.1290  0.1607
    1DPPC   C4A18572  14.580  11.407   4.444  0.0251  0.1797 -0.0002
    1DPPC   C1B18573  14.020  11.860   3.112  0.1527 -0.2147  0.1753
    1DPPC   C2B18574  13.734  11.864   3.538 -0.1626  0.1381 -0.2080
    1DPPC   C3B18575  13.793  11.831   3.956 -0.0812 -0.0556  0.0508
    1DPPC   C4B18576  13.892  12.186   4.263 -0.1641  0.0692  0.0912
    1DPPC   NC318577  14.756  19.200   2.007 -0.1000  0.0921  0.2323
    1DPPC   PO418578  14.681  18.791   2.270  0.0655  0.0338 -0.1780
    1DPPC   GL118579  14.733  18.657   2.624 -0.2630 -0.0971 -0.0723
    1DPPC   GL218580  14.975  18.757   2.735  0.2548  0.3389 -0.1850
    1DPPC   C1A18581  14.464  18.860   2.921 -0.1163 -0.1484  0.0766
    1DPPC   C2A18582  14.361  18.882   3.284  0.1239 -0.1268  0.0546
    1DPPC   C3A18583  14.294  18.926   3.679 -0.1118 -0.1004 -0.0492
    1DPPC   C4A18584  14.362  19.006   4.095  0.0416  0.2751 -0.1771
    1DPPC   C1B18585  14.847  18.660   3.171  0.1776  0.1711  0.0189
    1DPPC   C2B18586  14.680  18.659   3.549 -0.2004  0.1012 -0.3102
    1DPPC   C3B18587  14.726  18.576   3.977 -0.0255  0.0204  0.3955
    1DPPC   C4B18588  14.948  18.208   4.202  0.0456  0.0685  0.2751
    1DPPC   NC318589  22.192  12.982   2.218  0.0535 -0.2853 -0.2823
    1DPPC   PO418590  21.889  12.700   2.427  0.1006 -0.2229  0.0985
    1DPPC   GL118591  21.697  12.905   2.803 -0.5148  0.2026  0.3627
    1DPPC   GL218592  21.491  13.155   2.789  0.0253 -0.0759  0.0152
    1DPPC   C1A18593  21.806  12.793   3.296  0.2600 -0.1151  0.3623
    1DPPC   C2A18594  21.754  12.924   3.612  0.1639 -0.0026 -0.2243
    1DPPC   C3A18595  22.032  13.009   4.031 -0.0680  0.1536 -0.0715
    1DPPC   C4A18596  22.418  12.849   4.281  0.1728  0.1777 -0.1234
    1DPPC   C1B18597  21.673  13.266   3.231  0.0638  0.3880  0.0411
    1DPPC   C2B18598  21.693  13.483   3.495 -0.0415 -0.1753 -0.0279
    1DPPC   C3B18599  21.703  13.638   3.816  0.2086 -0.1247 -0.2128
    1DPPC   C4B18600  21.733  13.707   4.227 -0.1351  0.0285 -0.1052
    1DPPC   NC318601  16.805  16.152   2.278  0.0073 -0.0872  0.2334
    1DPPC   PO418602  16.965  15.792   2.158 -0.0061  0.0191 -0.1814
    1DPPC   GL118603  16.852  15.664   2.600  0.1321  0.4014  0.0587
    1DPPC   GL218604  16.758  15.994   2.711 -0.4234 -0.2630  0.4081
    1DPPC   C1A18605  16.899  15.637   3.053 -0.1119  0.1573  0.2441
    1DPPC   C2A18606  16.950  15.638   3.460  0.0647 -0.0887 -0.0565
    1DPPC   C3A18607  16.825  15.762   3.855  0.2433  0.1332 -0.0297
    1DPPC   C4A18608  16.614  15.612   4.209 -0.0926  0.2550  0.1559
    1DPPC   C1B18609  16.694  16.100   3.111  0.1271  0.0296 -0.0178
    1DPPC   C2B18610  16.789  16.203   3.562 -0.1015 -0.1831 -0.0366
    1DPPC   C3B18611  16.588  16.284   3.940 -0.1514  0.3953 -0.0855
    1DPPC   C4B18612  16.356  16.110   4.267  0.2915 -0.0837  0.1677
    1DPPC   NC318613   9.126  16.980   2.426  0.0054  0.0587  0.0625
    1DPPC   PO418614   8.715  16.831   2.252  0.1573 -0.0639 -0.2093
    1DPPC   GL118615   8.668  16.963   2.739  0.0070  0.2321 -0.0278
    1DPPC   GL218616   8.881  17.112   2.842 -0.1105  0.1772 -0.1062
    1DPPC   C1A18617   8.403  16.739   3.087 -0.3414 -0.0573 -0.1835
    1DPPC   C2A18618   8.364  16.690   3.527  0.6121 -0.3424  0.0011
    1DPPC   C3A18619   8.261  16.872   3.910  0.2030  0.0681 -0.1447
    1DPPC   C4A18620   8.074  16.568   4.199 -0.1997 -0.0451 -0.2174
    1DPPC   C1B18621   8.918  16.850   3.196  0.3947 -0.2334 -0.2650
    1DPPC   C2B18622   8.859  16.801   3.602 -0.3083 -0.0240  0.1394
    1DPPC   C3B18623   8.715  16.688   4.036 -0.0200  0.1941 -0.0545
    1DPPC   C4B18624   8.492  16.370   4.186 -0.2311  0.0222 -0.0363
    1DPPC   NC318625  17.387  15.450   2.066  0.2460  0.2938 -0.0965
    1DPPC   PO418626  17.589  15.834   2.071 -0.3131  0.4612  0.0174
    1DPPC   GL118627  17.864  15.783   2.513 -0.2897  0.2000 -0.1470
    1DPPC   GL218628  18.248  15.629   2.497 -0.2270 -0.2599 -0.0485
    1DPPC   C1A18629  17.970  15.812   2.964  0.0338  0.1785  0.3995
    1DPPC   C2A18630  17.999  15.671   3.253 -0.0460 -0.0576  0.0489
    1DPPC   C3A18631  17.882  15.633   3.601 -0.0544 -0.1344  0.4614
    1DPPC   C4A18632  17.752  15.546   4.046  0.0615 -0.3145  0.0885
    1DPPC   C1B18633  18.299  15.373   2.842  0.3595  0.1097 -0.1919
    1DPPC   C2B18634  18.244  15.235   3.287 -0.0926 -0.0202 -0.1776
    1DPPC   C3B18635  18.218  15.177   3.741  0.1197  0.1690  0.2272
    1DPPC   C4B18636  18.247  15.048   4.194 -0.0247 -0.0385 -0.3268
    1DPPC   NC318637  25.838  23.724   2.648 -0.0288 -0.3312  0.0850
    1DPPC   PO418638  25.641  23.750   2.985 -0.3354 -0.0509 -0.0348
    1DPPC   GL118639  25.639  23.709   3.420  0.1021 -0.0412 -0.2015
    1DPPC   GL218640  25.363  23.607   3.475  0.0937  0.0785  0.1724
    1DPPC   C1A18641  25.818  23.596   3.799 -0.0851  0.1512  0.1069
    1DPPC   C2A18642  26.138  23.250   3.950  0.0413  0.1064  0.3586
    1DPPC   C3A18643  26.274  22.803   3.971  0.0924  0.0860 -0.0848
    1DPPC   C4A18644  26.348  22.456   4.366  0.1947 -0.0087 -0.0398
    1DPPC   C1B18645  25.343  23.430   3.849  0.0599  0.1631 -0.1783
    1DPPC   C2B18646  25.434  23.676   4.166 -0.2871 -0.0523 -0.0841
    1DPPC   C3B18647  25.692  23.409   4.430  0.3658 -0.0255 -0.0130
    1DPPC   C4B18648  26.101  23.338   4.480 -0.2920 -0.1904  0.1131
    1DPPC   NC318649  11.641  14.261   2.121 -0.0307 -0.0789 -0.2144
    1DPPC   PO418650  11.741  13.947   2.611 -0.1548  0.1221  0.1492
    1DPPC   GL118651  11.878  13.776   2.926  0.2358 -0.3301  0.0211
    1DPPC   GL218652  11.951  13.490   2.919  0.0802 -0.0624 -0.0424
    1DPPC   C1A18653  11.812  13.791   3.377 -0.0746  0.0097  0.0981
    1DPPC   C2A18654  11.813  13.684   3.730 -0.0147  0.0967 -0.1308
    1DPPC   C3A18655  11.817  13.673   4.197 -0.0936 -0.1004  0.1862
    1DPPC   C4A18656  11.683  13.730   4.538 -0.2370 -0.0548 -0.0538
    1DPPC   C1B18657  12.137  13.390   3.351 -0.1826  0.2561 -0.1286
    1DPPC   C2B18658  12.188  13.352   3.778  0.3050  0.4166 -0.0640
    1DPPC   C3B18659  12.222  13.345   4.113  0.2010  0.2337 -0.1728
    1DPPC   C4B18660  12.032  13.346   4.586  0.1063 -0.0868 -0.0270
    1DPPC   NC318661  13.035  19.782   2.592 -0.1587 -0.2051 -0.3906
    1DPPC   PO418662  12.755  20.055   2.491  0.1503 -0.1157  0.0026
    1DPPC   GL118663  12.761  20.264   2.842  0.0690 -0.0132  0.0244
    1DPPC   GL218664  12.899  20.157   2.992  0.0416  0.0209  0.4149
    1DPPC   C1A18665  12.785  20.675   3.083  0.2987  0.2112 -0.1163
    1DPPC   C2A18666  12.780  20.911   3.555  0.0651  0.1660 -0.0942
    1DPPC   C3A18667  13.063  21.077   3.839 -0.2060  0.1598  0.0819
    1DPPC   C4A18668  13.259  21.156   4.185  0.0136  0.1555 -0.0871
    1DPPC   C1B18669  12.832  20.293   3.440 -0.0991 -0.1666  0.0946
    1DPPC   C2B18670  12.946  20.474   3.786  0.3277 -0.0505  0.2521
    1DPPC   C3B18671  12.884  20.504   4.290  0.2153  0.1824 -0.0088
    1DPPC   C4B18672  12.952  20.705   4.598  0.1421 -0.3614  0.1051
    1DPPC   NC318673   7.376  20.932   2.179 -0.2906  0.3872 -0.1278
    1DPPC   PO418674   7.450  20.481   2.138  0.0201  0.1290 -0.0672
    1DPPC   GL118675   7.821  20.410   2.444  0.1092  0.0165  0.1014
    1DPPC   GL218676   8.187  20.292   2.384  0.0551  0.4339  0.1063
    1DPPC   C1A18677   7.708  20.378   2.855 -0.3595 -0.0764 -0.1536
    1DPPC   C2A18678   7.753  20.466   3.250  0.0043  0.2485 -0.4068
    1DPPC   C3A18679   7.952  20.876   3.554 -0.5847  0.2172 -0.1720
    1DPPC   C4A18680   8.066  21.225   3.923  0.3633  0.0782  0.0377
    1DPPC   C1B18681   8.191  20.327   2.842 -0.0768 -0.1001  0.0545
    1DPPC   C2B18682   8.292  20.315   3.282  0.0426  0.0134  0.1791
    1DPPC   C3B18683   8.171  20.446   3.675 -0.1946  0.0231  0.0890
    1DPPC   C4B18684   8.147  20.688   4.050 -0.0510 -0.1540  0.0800
    1DPPC   NC318685  16.679   3.045   2.544 -0.4647 -0.2927 -0.0192
    1DPPC   PO418686  16.548   2.689   2.687  0.1151  0.3124 -0.0875
    1DPPC   GL118687  16.500   2.816   3.127  0.0749  0.1083 -0.1612
    1DPPC   GL218688  16.067   2.712   3.284 -0.0416 -0.0092  0.0149
    1DPPC   C1A18689  16.636   2.697   3.503 -0.2060  0.2523 -0.1725
    1DPPC   C2A18690  16.654   2.856   3.952  0.2540 -0.1432 -0.2136
    1DPPC   C3A18691  16.816   2.636   4.303 -0.1480  0.1888 -0.2937
    1DPPC   C4A18692  16.829   2.556   4.706 -0.0142 -0.2152 -0.3379
    1DPPC   C1B18693  16.149   2.944   3.538 -0.3500 -0.2569 -0.1462
    1DPPC   C2B18694  16.178   3.060   3.899 -0.2199 -0.0561  0.0704
    1DPPC   C3B18695  16.301   2.883   4.240  0.0186 -0.0353  0.0885
    1DPPC   C4B18696  16.428   2.784   4.637 -0.1277  0.1796 -0.0919
    1DPPC   NC318697   4.938  28.520   3.028  0.2801  0.1514  0.0157
    1DPPC   PO418698   4.562  28.554   3.404 -0.2676  0.0198 -0.2264
    1DPPC   GL118699   4.301  28.430   3.649 -0.0612 -0.0500  0.0591
    1DPPC   GL218700   4.500  28.045   3.670 -0.0000 -0.1163 -0.3924
    1DPPC   C1A18701   4.114  28.191   4.031  0.0322  0.3660 -0.2833
    1DPPC   C2A18702   3.841  27.965   4.182  0.0661 -0.1447  0.1755
    1DPPC   C3A18703   3.756  27.584   4.371  0.0036 -0.1124  0.2930
    1DPPC   C4A18704   3.799  27.180   4.585  0.1246 -0.1224 -0.0857
    1DPPC   C1B18705   4.323  27.689   4.001 -0.2020 -0.0421  0.4819
    1DPPC   C2B18706   4.218  27.454   4.380  0.0342 -0.2524 -0.0085
    1DPPC   C3B18707   4.353  27.235   4.770 -0.2133  0.0556  0.1222
    1DPPC   C4B18708   4.770  27.287   4.872  0.0642 -0.2293 -0.0409
    1DPPC   NC318709  18.045  20.384   2.538 -0.0556 -0.3005  0.2032
    1DPPC   PO418710  18.263  20.221   2.844  0.1741 -0.1513 -0.1734
    1DPPC   GL118711  18.311  20.292   3.154  0.1243  0.1589  0.0318
    1DPPC   GL218712  18.458  20.508   3.309  0.0411 -0.0101  0.0681
    1DPPC   C1A18713  18.129  20.147   3.570 -0.1803 -0.1227 -0.0109
    1DPPC   C2A18714  18.107  19.854   3.982  0.1453 -0.2466 -0.0328
    1DPPC   C3A18715  18.105  19.754   4.475  0.0717  0.0307  0.2430
    1DPPC   C4A18716  17.876  19.936   4.807 -0.1087 -0.0846  0.2091
    1DPPC   C1B18717  18.677  20.230   3.624  0.2384 -0.2820  0.3489
    1DPPC   C2B18718  18.574  20.101   4.083  0.1197 -0.1383  0.0766
    1DPPC   C3B18719  18.338  20.208   4.418 -0.3394 -0.1541  0.3254
    1DPPC   C4B18720  18.249  20.337   4.864 -0.1083 -0.2824  0.1377
    1DPPC   NC318721  11.113  10.432   2.861 -0.0241  0.3416  0.0808
    1DPPC   PO418722  11.233  10.853   3.025  0.3166 -0.2296 -0.0771
    1DPPC   GL118723  11.326  10.889   3.421  0.1177  0.0340  0.0461
    1DPPC   GL218724  11.324  11.270   3.524 -0.2372  0.1021  0.0699
    1DPPC   C1A18725  11.644  10.783   3.764 -0.1268 -0.0941  0.0604
    1DPPC   C2A18726  11.740  10.877   4.142  0.1301  0.1403 -0.0838
    1DPPC   C3A18727  11.808  10.826   4.474  0.1376  0.0140 -0.1341
    1DPPC   C4A18728  11.944  10.786   4.913  0.2398  0.0816  0.0563
    1DPPC   C1B18729  11.326  11.088   3.974  0.1831 -0.2020 -0.1132
    1DPPC   C2B18730  11.362  11.146   4.401  0.1053 -0.2166 -0.0986
    1DPPC   C3B18731  11.372  11.055   4.877 -0.0956  0.0206  0.2683
    1DPPC   C4B18732  11.438  10.881   5.236  0.0142 -0.0142  0.0432
    1DPPC   NC318733  10.544  16.666   2.095  0.0136 -0.0665  0.0805
    1DPPC   PO418734  10.170  16.862   2.135 -0.0166  0.2287  0.0194
    1DPPC   GL118735  10.201  16.614   2.482  0.0932  0.4204 -0.1175
    1DPPC   GL218736  10.043  16.392   2.614 -0.2736 -0.2127  0.4738
    1DPPC   C1A18737  10.353  16.845   2.903 -0.1035  0.0375  0.0214
    1DPPC   C2A18738  10.211  16.849   3.367  0.1324  0.0570  0.5069
    1DPPC   C3A18739  10.251  16.924   3.778 -0.1020 -0.3073  0.2563
    1DPPC   C4A18740  10.111  16.946   4.158  0.0768 -0.0827  0.0413
    1DPPC   C1B18741   9.878  16.632   2.988  0.0343  0.1337  0.2436
    1DPPC   C2B18742   9.755  16.645   3.434  0.1355 -0.3891 -0.1421
    1DPPC   C3B18743   9.805  16.798   3.810  0.1631  0.1606 -0.0439
    1DPPC   C4B18744   9.653  16.867   4.228  0.2815 -0.2064 -0.1626
    1DPPC   NC318745  10.995   8.705   3.194  0.1088 -0.1134  0.0236
    1DPPC   PO418746  10.595   8.779   3.260  0.1836 -0.1023 -0.2230
    1DPPC   GL118747  10.313   8.916   3.526 -0.0771  0.0411  0.1482
    1DPPC   GL218748  10.449   9.069   3.684 -0.0759 -0.1755 -0.0986
    1DPPC   C1A18749  10.041   8.917   4.006 -0.1947 -0.1252  0.0989
    1DPPC   C2A18750  10.085   8.949   4.378  0.1301 -0.3952  0.0393
    1DPPC   C3A18751  10.188   9.078   4.746  0.1545 -0.0676  0.0534
    1DPPC   C4A18752   9.877   9.065   5.073 -0.2779  0.1640  0.2264
    1DPPC   C1B18753  10.526   9.114   4.068  0.3764 -0.0195 -0.1293
    1DPPC   C2B18754  10.600   9.097   4.476  0.0039 -0.0906 -0.1276
    1DPPC   C3B18755  10.862   9.238   4.704  0.0333 -0.0871  0.0016
    1DPPC   C4B18756  11.138   9.130   5.072  0.0660  0.1093  0.0310
    1DPPC   NC318757  18.345  11.610   1.436 -0.0101  0.1163  0.2109
    1DPPC   PO418758  18.747  11.633   1.772 -0.0209 -0.0798 -0.1555
    1DPPC   GL118759  18.516  11.570   2.243 -0.2295  0.1216  0.2887
    1DPPC   GL218760  18.635  11.743   2.493 -0.1711 -0.0956  0.0873
    1DPPC   C1A18761  18.218  11.656   2.670 -0.0685  0.0905 -0.3178
    1DPPC   C2A18762  18.031  11.790   3.009  0.1184  0.1584 -0.2049
    1DPPC   C3A18763  17.673  11.852   3.378 -0.0316  0.0518 -0.3436
    1DPPC   C4A18764  17.431  11.654   3.588  0.0766 -0.2721 -0.0106
    1DPPC   C1B18765  18.807  11.668   2.861 -0.1669 -0.0380 -0.0536
    1DPPC   C2B18766  18.725  11.635   3.247  0.1078  0.2655  0.0117
    1DPPC   C3B18767  18.609  11.658   3.647 -0.0930 -0.2009  0.2222
    1DPPC   C4B18768  18.382  11.893   4.005 -0.2455 -0.1772  0.0063
    1DPPC   NC318769  10.189  23.079   2.501 -0.2744 -0.1553 -0.2059
    1DPPC   PO418770  10.479  22.748   2.507 -0.1789 -0.0334  0.0317
    1DPPC   GL118771  10.532  22.979   2.879  0.1266 -0.1284  0.1280
    1DPPC   GL218772  10.580  23.366   2.700  0.4939 -0.1737  0.1707
    1DPPC   C1A18773  10.266  22.893   3.346  0.3373 -0.0405  0.0331
    1DPPC   C2A18774  10.137  22.654   3.750 -0.0200  0.0132 -0.0085
    1DPPC   C3A18775  10.340  22.500   4.041 -0.0657  0.2224 -0.0792
    1DPPC   C4A18776  10.436  22.300   4.511 -0.2305  0.0427 -0.0137
    1DPPC   C1B18777  10.708  23.343   3.129  0.0529 -0.3564 -0.2744
    1DPPC   C2B18778  10.757  23.211   3.476 -0.1558  0.0837  0.1746
    1DPPC   C3B18779  11.057  22.949   3.686 -0.3923  0.1064 -0.0689
    1DPPC   C4B18780  11.316  22.678   4.008  0.0653 -0.0312 -0.0716
    1DPPC   NC318781  17.926  15.456   2.174  0.0690 -0.0456  0.0096
    1DPPC   PO418782  17.696  15.131   2.334 -0.1020 -0.0790  0.0416
    1DPPC   GL118783  17.855  15.230   2.642  0.1179  0.0845  0.0232
    1DPPC   GL218784  18.022  14.918   2.814  0.0323  0.1021  0.0083
    1DPPC   C1A18785  17.710  15.350   2.958 -0.0145 -0.0676 -0.0087
    1DPPC   C2A18786  17.801  15.141   3.482  0.2730  0.2685 -0.1353
    1DPPC   C3A18787  17.513  14.783   3.575  0.1006 -0.1727  0.0740
    1DPPC   C4A18788  17.271  14.579   3.152 -0.1138  0.1425  0.0777
    1DPPC   C1B18789  18.220  14.698   3.131  0.1251 -0.2674  0.1921
    1DPPC   C2B18790  18.095  14.736   3.564 -0.0425 -0.1218  0.2837
    1DPPC   C3B18791  17.868  14.826   3.919  0.1204  0.3675 -0.0362
    1DPPC   C4B18792  17.513  14.671   4.099  0.2704 -0.1631  0.0076
    1DPPC   NC318793  19.761   0.842   3.541 -0.1097 -0.3597 -0.0260
    1DPPC   PO418794  19.562   1.169   3.189  0.0486 -0.0191 -0.0338
    1DPPC   GL118795  19.361   1.212   3.626  0.1775 -0.2000  0.1383
    1DPPC   GL218796  19.224   1.498   3.790  0.2907  0.0495 -0.2275
    1DPPC   C1A18797  19.408   1.164   4.155  0.0064 -0.1085 -0.0265
    1DPPC   C2A18798  19.367   0.993   4.567  0.0432  0.4243  0.1768
    1DPPC   C3A18799  19.640   0.738   4.761 -0.3469 -0.3653 -0.3449
    1DPPC   C4A18800  19.667   0.465   5.077  0.1361  0.0786 -0.0551
    1DPPC   C1B18801  19.032   1.491   4.221 -0.0441 -0.2410  0.5136
    1DPPC   C2B18802  18.881   1.249   4.571  0.2710 -0.0882 -0.1421
    1DPPC   C3B18803  18.765   0.823   4.787 -0.0076  0.1711  0.2898
    1DPPC   C4B18804  18.924   0.308   4.623 -0.2099  0.0783  0.0207
    1DPPC   NC318805  12.889  15.142   2.124  0.0820 -0.1430 -0.0079
    1DPPC   PO418806  13.180  15.260   2.277  0.0072 -0.0741  0.0782
    1DPPC   GL118807  13.081  15.232   2.733  0.0519 -0.0829 -0.0295
    1DPPC   GL218808  12.990  15.031   2.865  0.1442 -0.1634  0.3746
    1DPPC   C1A18809  13.352  15.453   3.091  0.1055  0.0617 -0.0804
    1DPPC   C2A18810  13.415  15.430   3.484 -0.0079  0.2871 -0.0493
    1DPPC   C3A18811  13.489  15.465   3.915  0.0741 -0.2882 -0.0442
    1DPPC   C4A18812  13.632  15.219   4.321 -0.1948  0.0632 -0.0172
    1DPPC   C1B18813  12.926  14.989   3.321  0.3780  0.2512 -0.0769
    1DPPC   C2B18814  13.038  15.067   3.795  0.2668 -0.2703  0.0995
    1DPPC   C3B18815  13.082  15.024   4.251  0.0467 -0.2895 -0.0168
    1DPPC   C4B18816  13.066  15.431   4.344 -0.0980 -0.2595  0.3149
    1DPPC   NC318817   9.289  13.931   2.383  0.1748 -0.1292  0.3183
    1DPPC   PO418818   9.459  13.734   2.769 -0.1560  0.1712  0.0592
    1DPPC   GL118819   9.727  13.694   3.091 -0.0736 -0.1245 -0.0177
    1DPPC   GL218820   9.649  13.424   3.293  0.0306  0.1879 -0.2410
    1DPPC   C1A18821  10.095  13.749   3.349 -0.2313 -0.2445  0.1548
    1DPPC   C2A18822  10.172  13.931   3.750  0.0931  0.0008  0.0520
    1DPPC   C3A18823  10.298  13.917   4.160  0.2320  0.1542 -0.0101
    1DPPC   C4A18824  10.304  13.737   4.463 -0.0217  0.1535  0.0893
    1DPPC   C1B18825   9.736  13.742   3.681  0.0939  0.2021  0.0070
    1DPPC   C2B18826   9.774  13.784   4.105 -0.3920  0.1199  0.0405
    1DPPC   C3B18827   9.737  13.697   4.519 -0.0608 -0.1784 -0.2159
    1DPPC   C4B18828   9.885  13.491   4.791  0.1352 -0.0908 -0.1213
    1DPPC   NC318829   8.643  17.644   1.935  0.0919  0.1650 -0.0889
    1DPPC   PO418830   9.033  17.449   2.183 -0.1902 -0.1606  0.0125
    1DPPC   GL118831   8.919  17.615   2.539  0.1809 -0.2934 -0.3696
    1DPPC   GL218832   9.111  17.572   2.735 -0.1817 -0.0608  0.1086
    1DPPC   C1A18833   8.689  17.883   2.706 -0.2561  0.0693 -0.0138
    1DPPC   C2A18834   8.416  17.869   3.024 -0.0338 -0.0248 -0.0596
    1DPPC   C3A18835   8.344  17.981   3.548 -0.1730 -0.2959  0.4477
    1DPPC   C4A18836   8.211  17.957   3.898  0.0112 -0.5967  0.0213
    1DPPC   C1B18837   8.837  17.636   3.121  0.1153  0.1873  0.2235
    1DPPC   C2B18838   8.779  17.715   3.494 -0.0351 -0.3390  0.2600
    1DPPC   C3B18839   8.670  17.584   3.877  0.0226  0.0445 -0.1605
    1DPPC   C4B18840   8.572  17.690   4.332  0.1186 -0.1180 -0.1317
    1DPPC   NC318841  12.824  20.921   2.067 -0.2163  0.1785  0.0297
    1DPPC   PO418842  12.581  21.255   2.260  0.0944  0.4327  0.2586
    1DPPC   GL118843  12.357  21.343   2.564  0.4779 -0.4576  0.4728
    1DPPC   GL218844  12.520  21.613   2.663  0.1367  0.0910 -0.3391
    1DPPC   C1A18845  12.108  21.482   2.892 -0.1659  0.1409  0.0912
    1DPPC   C2A18846  12.043  21.642   3.293  0.1732  0.0234 -0.2314
    1DPPC   C3A18847  12.059  21.668   3.675  0.1878 -0.0626 -0.0065
    1DPPC   C4A18848  11.891  21.356   3.938  0.1719 -0.1299 -0.1128
    1DPPC   C1B18849  12.583  21.304   3.003  0.0166  0.0819  0.0666
    1DPPC   C2B18850  12.509  21.310   3.470  0.1203 -0.1790 -0.0542
    1DPPC   C3B18851  12.283  21.061   3.750 -0.1769 -0.0548 -0.2002
    1DPPC   C4B18852  12.105  20.917   4.175  0.1824  0.3610 -0.0674
    1DPPC   NC318853  12.348  24.956   2.293 -0.2641  0.0561 -0.3567
    1DPPC   PO418854  12.507  24.697   2.674  0.1847  0.1991 -0.2127
    1DPPC   GL118855  12.593  24.899   3.110 -0.1721 -0.1139  0.0662
    1DPPC   GL218856  12.566  24.629   3.340 -0.0649 -0.4220 -0.0580
    1DPPC   C1A18857  12.757  25.019   3.565  0.0188 -0.0440 -0.1482
    1DPPC   C2A18858  12.628  25.171   3.883  0.2598  0.0999 -0.1178
    1DPPC   C3A18859  12.728  24.907   4.163  0.1186 -0.1681  0.4948
    1DPPC   C4A18860  12.831  24.556   4.453 -0.1796  0.1666 -0.2268
    1DPPC   C1B18861  12.572  24.619   3.792 -0.3960  0.0800  0.0970
    1DPPC   C2B18862  12.350  24.600   4.264  0.0440 -0.1175 -0.2568
    1DPPC   C3B18863  11.910  24.683   4.383  0.2265 -0.3013  0.0442
    1DPPC   C4B18864  11.508  24.469   4.234  0.1700  0.0156  0.2620
    1DPPC   NC318865   9.239  12.030   3.092 -0.2581  0.1106 -0.2074
    1DPPC   PO418866   9.477  11.565   3.094  0.0758  0.1311  0.0684
    1DPPC   GL118867   9.361  11.472   3.443 -0.0984  0.0281  0.0046
    1DPPC   GL218868   9.126  11.232   3.385 -0.0408  0.1914  0.2737
    1DPPC   C1A18869   9.540  11.371   3.765 -0.4692  0.0496  0.1782
    1DPPC   C2A18870   9.617  11.513   4.193  0.0871  0.0822 -0.2374
    1DPPC   C3A18871   9.650  11.699   4.649 -0.1345 -0.0238 -0.0562
    1DPPC   C4A18872   9.608  12.041   4.987  0.0999  0.1769 -0.0840
    1DPPC   C1B18873   9.241  10.984   3.765  0.1397  0.3929 -0.2211
    1DPPC   C2B18874   9.292  11.096   4.242 -0.0735  0.3949  0.2160
    1DPPC   C3B18875   9.353  11.306   4.631 -0.0095 -0.1292  0.1338
    1DPPC   C4B18876   9.467  11.454   4.997 -0.0196 -0.0019 -0.1031
    1DPPC   NC318877  15.507  18.266   2.408  0.0710 -0.1540  0.2268
    1DPPC   PO418878  15.409  18.675   2.482  0.3083  0.1216  0.1260
    1DPPC   GL118879  15.626  18.699   2.817  0.0279 -0.0581 -0.1503
    1DPPC   GL218880  15.849  18.365   2.854  0.0265  0.0191  0.3226
    1DPPC   C1A18881  15.670  18.782   3.210  0.1100 -0.0515  0.1762
    1DPPC   C2A18882  15.723  18.666   3.664  0.3237 -0.0181  0.1635
    1DPPC   C3A18883  15.789  18.681   4.090  0.0658 -0.0860 -0.2769
    1DPPC   C4A18884  15.620  18.657   4.485 -0.2352 -0.0609  0.2790
    1DPPC   C1B18885  15.732  18.279   3.268 -0.0209 -0.0937  0.2197
    1DPPC   C2B18886  15.743  18.199   3.751 -0.2525 -0.1703 -0.2256
    1DPPC   C3B18887  15.702  18.225   4.158  0.1821  0.0837 -0.0979
    1DPPC   C4B18888  15.424  18.199   4.463 -0.1638 -0.1407 -0.1005
    1DPPC   NC318889  21.127  10.565   1.825 -0.0359  0.0320 -0.0561
    1DPPC   PO418890  21.156  10.812   2.158  0.0150  0.1494  0.1938
    1DPPC   GL118891  20.971  10.808   2.519 -0.1759  0.2850  0.2046
    1DPPC   GL218892  20.548  10.991   2.571  0.0631 -0.2994 -0.1515
    1DPPC   C1A18893  20.906  10.847   2.991 -0.3216  0.2287  0.0033
    1DPPC   C2A18894  20.785  10.833   3.417 -0.1843 -0.1127  0.0813
    1DPPC   C3A18895  20.935  10.497   3.604 -0.3259  0.0455  0.1770
    1DPPC   C4A18896  21.104  10.261   3.874  0.2672 -0.0474  0.2669
    1DPPC   C1B18897  20.727  11.262   2.843  0.0103  0.4041  0.2245
    1DPPC   C2B18898  20.572  11.215   3.193 -0.1246  0.0416 -0.0710
    1DPPC   C3B18899  20.474  11.201   3.571  0.2075  0.2478  0.3264
    1DPPC   C4B18900  20.144  11.209   3.792  0.1836 -0.1651 -0.3356
    1DPPC   NC318901  13.242   7.376   3.131  0.1470 -0.0418 -0.0210
    1DPPC   PO418902  13.541   7.281   3.105 -0.1859 -0.4390  0.1641
    1DPPC   GL118903  13.618   7.528   3.454  0.2355 -0.2727 -0.0482
    1DPPC   GL218904  13.358   7.569   3.593  0.2588 -0.1401 -0.0050
    1DPPC   C1A18905  13.820   7.487   3.788  0.0962  0.2750 -0.1038
    1DPPC   C2A18906  14.070   7.066   3.925 -0.0325  0.1641  0.2389
    1DPPC   C3A18907  14.505   7.077   3.887  0.1653 -0.0763  0.0219
    1DPPC   C4A18908  14.753   6.820   4.136  0.0215 -0.6260 -0.2902
    1DPPC   C1B18909  13.428   7.373   4.032 -0.0022 -0.0857  0.3200
    1DPPC   C2B18910  13.876   7.395   4.302  0.0820 -0.0788 -0.0278
    1DPPC   C3B18911  13.941   7.378   4.792  0.2302 -0.1193  0.0373
    1DPPC   C4B18912  13.689   7.163   5.111 -0.0408 -0.1341 -0.3321
    1DPPC   NC318913  19.083  14.986   1.638 -0.4037  0.2533 -0.2574
    1DPPC   PO418914  19.286  15.179   2.064 -0.2913 -0.1026 -0.1544
    1DPPC   GL118915  19.264  15.359   2.450 -0.0060  0.2055  0.0986
    1DPPC   GL218916  19.505  15.329   2.712 -0.1216 -0.2913 -0.2257
    1DPPC   C1A18917  19.129  15.697   2.759  0.1215  0.1252  0.2267
    1DPPC   C2A18918  19.023  15.636   3.214  0.1897  0.1018 -0.1517
    1DPPC   C3A18919  19.042  15.607   3.590  0.3642 -0.1079  0.3150
    1DPPC   C4A18920  19.043  15.602   4.023 -0.0764 -0.2958 -0.1169
    1DPPC   C1B18921  19.521  15.593   3.095 -0.0382 -0.1648  0.0119
    1DPPC   C2B18922  19.519  15.528   3.542  0.3327 -0.0294  0.5135
    1DPPC   C3B18923  19.450  15.195   3.861  0.1618 -0.1696  0.0991
    1DPPC   C4B18924  19.530  14.830   3.883 -0.1064 -0.0195 -0.1111
    1DPPC   NC318925  12.388  11.151   2.706  0.1713  0.1490 -0.0413
    1DPPC   PO418926  12.637  10.847   2.735 -0.0802  0.4787 -0.1322
    1DPPC   GL118927  12.768  10.748   3.149 -0.1701  0.2722 -0.0466
    1DPPC   GL218928  13.040  10.547   3.325  0.1400  0.1339  0.2848
    1DPPC   C1A18929  12.719  10.925   3.539 -0.1120 -0.0920  0.3174
    1DPPC   C2A18930  12.696  11.156   3.968 -0.2176  0.2146  0.1368
    1DPPC   C3A18931  12.758  11.071   4.427 -0.0680 -0.4257 -0.1170
    1DPPC   C4A18932  12.788  11.195   4.856 -0.1799  0.1817 -0.0823
    1DPPC   C1B18933  13.168  10.331   3.754  0.2390 -0.0239 -0.2718
    1DPPC   C2B18934  13.345  10.466   4.185  0.0352 -0.1105  0.0267
    1DPPC   C3B18935  13.308  10.526   4.627 -0.0339 -0.1353  0.0312
    1DPPC   C4B18936  13.518  10.257   4.830  0.0999 -0.0954  0.1765
    1DPPC   NC318937  18.901   1.724   2.986  0.1074  0.1662 -0.2135
    1DPPC   PO418938  19.073   1.479   3.303  0.3483  0.3875 -0.1921
    1DPPC   GL118939  18.973   1.779   3.495  0.2313  0.4421 -0.1181
    1DPPC   GL218940  19.151   1.998   3.652  0.1125  0.2938 -0.2528
    1DPPC   C1A18941  18.579   2.057   3.685 -0.0086  0.2980 -0.0751
    1DPPC   C2A18942  18.356   1.916   4.021  0.5073  0.0333 -0.0055
    1DPPC   C3A18943  18.292   2.017   4.466 -0.1792 -0.0165  0.0052
    1DPPC   C4A18944  18.067   1.729   4.708 -0.1505  0.0882 -0.1599
    1DPPC   C1B18945  19.001   1.948   3.989  0.0417 -0.0614 -0.0155
    1DPPC   C2B18946  18.754   1.900   4.300  0.2375  0.1179 -0.0514
    1DPPC   C3B18947  18.816   2.139   4.838  0.0480 -0.3272  0.1268
    1DPPC   C4B18948  18.829   2.553   4.974  0.0542 -0.0349 -0.1328
    1DPPC   NC318949  15.480  17.452   2.205 -0.3088 -0.2509 -0.3030
    1DPPC   PO418950  15.702  17.818   2.189 -0.0396  0.1523  0.0138
    1DPPC   GL118951  15.712  17.672   2.622  0.0714  0.2573  0.1791
    1DPPC   GL218952  16.054  17.629   2.636 -0.0140  0.3064 -0.2205
    1DPPC   C1A18953  15.562  17.842   3.063 -0.0632 -0.0520  0.2352
    1DPPC   C2A18954  15.483  17.800   3.531 -0.4642 -0.3029 -0.0910
    1DPPC   C3A18955  15.356  17.907   3.997 -0.0477 -0.1600  0.0994
    1DPPC   C4A18956  15.051  17.761   4.370 -0.0945 -0.2510 -0.1693
    1DPPC   C1B18957  16.132  17.887   2.943  0.0721 -0.0498 -0.2258
    1DPPC   C2B18958  16.106  17.954   3.339  0.2524 -0.0734 -0.1132
    1DPPC   C3B18959  16.170  17.898   3.743  0.0054 -0.0758 -0.2369
    1DPPC   C4B18960  16.233  18.009   4.207  0.0016  0.0394  0.1006
    1DPPC   NC318961  17.104  12.608   2.552 -0.0523  0.2736 -0.1020
    1DPPC   PO418962  16.675  12.335   2.560 -0.0878  0.2031  0.1375
    1DPPC   GL118963  16.716  12.289   2.909 -0.1049 -0.1815 -0.2081
    1DPPC   GL218964  17.061  12.429   3.030 -0.0543  0.1400  0.0142
    1DPPC   C1A18965  16.385  12.125   3.217  0.0798  0.1434  0.2153
    1DPPC   C2A18966  16.445  12.173   3.753 -0.3121  0.1510  0.0813
    1DPPC   C3A18967  16.696  12.125   4.155  0.2384 -0.0089  0.0257
    1DPPC   C4A18968  17.040  11.862   4.395 -0.0348 -0.1323  0.1001
    1DPPC   C1B18969  16.841  12.388   3.480 -0.3726 -0.0341  0.1988
    1DPPC   C2B18970  16.996  12.335   3.839  0.0696 -0.0358 -0.1945
    1DPPC   C3B18971  17.244  12.399   4.118  0.0343 -0.2379 -0.1744
    1DPPC   C4B18972  17.506  12.722   4.350  0.0712  0.5081 -0.0978
    1DPPC   NC318973   8.906   1.079   3.300  0.1348  0.0177  0.0381
    1DPPC   PO418974   8.533   1.462   3.322  0.2594  0.1020  0.1109
    1DPPC   GL118975   8.833   1.452   3.661 -0.0839 -0.1491 -0.0119
    1DPPC   GL218976   8.851   1.714   3.871 -0.0231  0.0009  0.4100
    1DPPC   C1A18977   9.200   1.369   3.941 -0.0133  0.0817 -0.0983
    1DPPC   C2A18978   9.060   1.222   4.420  0.0232  0.1385 -0.1622
    1DPPC   C3A18979   9.175   1.492   4.765 -0.2464  0.0274  0.3191
    1DPPC   C4A18980   9.442   1.737   4.956  0.1054  0.1534 -0.0300
    1DPPC   C1B18981   9.051   1.726   4.292 -0.3979  0.1241 -0.2233
    1DPPC   C2B18982   9.530   1.841   4.512 -0.1265  0.0156 -0.0104
    1DPPC   C3B18983   9.903   1.841   4.734 -0.0631 -0.0737  0.0412
    1DPPC   C4B18984  10.228   1.675   4.880 -0.1024  0.6304  0.4507
    1DPPC   NC318985  10.678   8.299   3.096 -0.1096 -0.4007  0.2921
    1DPPC   PO418986  11.054   8.275   2.931  0.0331 -0.0670 -0.0303
    1DPPC   GL118987  11.177   8.277   3.455  0.0078 -0.2900  0.0654
    1DPPC   GL218988  10.918   8.193   3.584 -0.0666 -0.0446  0.2100
    1DPPC   C1A18989  11.383   8.417   3.835  0.1013  0.3371 -0.0918
    1DPPC   C2A18990  11.392   8.185   4.183 -0.2050 -0.1550  0.3310
    1DPPC   C3A18991  11.440   8.031   4.635  0.2704  0.3967  0.0192
    1DPPC   C4A18992  11.720   8.054   4.970 -0.1720 -0.0376  0.2426
    1DPPC   C1B18993  10.815   8.245   3.953 -0.2941  0.3297 -0.2192
    1DPPC   C2B18994  10.451   8.099   4.199 -0.0193 -0.0308 -0.2339
    1DPPC   C3B18995  10.545   8.107   4.677  0.0701  0.1413 -0.0780
    1DPPC   C4B18996  10.540   8.275   5.043  0.1795 -0.0837  0.3532
    1DPPC   NC318997  10.394  18.246   1.915  0.2486 -0.1957  0.1626
    1DPPC   PO418998  10.457  17.836   1.893 -0.1595 -0.2693  0.1131
    1DPPC   GL118999  10.389  17.940   2.339  0.0775 -0.0629  0.1166
    1DPPC   GL219000  10.160  18.193   2.624 -0.1443 -0.1151  0.1802
    1DPPC   C1A19001  10.818  18.060   2.714  0.4333  0.0369 -0.4290
    1DPPC   C2A19002  10.902  18.057   3.180 -0.0344 -0.0032 -0.1572
    1DPPC   C3A19003  10.982  18.114   3.532 -0.1385  0.1478  0.0975
    1DPPC   C4A19004  10.931  18.098   4.005 -0.2726 -0.4071 -0.0153
    1DPPC   C1B19005  10.425  17.998   2.971  0.0092  0.1651 -0.1668
    1DPPC   C2B19006  10.376  18.041   3.422  0.2275  0.0947  0.1965
    1DPPC   C3B19007  10.190  17.939   3.794  0.0344  0.1806 -0.2551
    1DPPC   C4B19008  10.038  17.888   4.184 -0.0143 -0.2303  0.0073
    1DPPC   NC319009   5.041   9.594   3.160 -0.2604  0.0100  0.0623
    1DPPC   PO419010   4.998   9.998   2.938  0.2757 -0.0029  0.2046
    1DPPC   GL119011   4.732  10.081   3.266  0.1878  0.0521  0.0283
    1DPPC   GL219012   4.957   9.979   3.477  0.2206  0.2741 -0.0708
    1DPPC   C1A19013   4.642  10.309   3.683 -0.1659  0.3992  0.1091
    1DPPC   C2A19014   4.557  10.461   4.096 -0.0615 -0.0130  0.0218
    1DPPC   C3A19015   4.282  10.360   4.445 -0.1389 -0.0246 -0.2982
    1DPPC   C4A19016   3.807  10.275   4.293  0.2832  0.2801  0.0802
    1DPPC   C1B19017   4.908   9.871   3.968 -0.2565 -0.3338 -0.0141
    1DPPC   C2B19018   4.808   9.982   4.393 -0.5014  0.0482 -0.2050
    1DPPC   C3B19019   4.756  10.330   4.698  0.1821 -0.0865 -0.0666
    1DPPC   C4B19020   4.644  10.849   4.734  0.2115 -0.0261 -0.1734
    1DPPC   NC319021   9.659   9.232   3.056  0.0115 -0.2464 -0.1696
    1DPPC   PO419022   9.899   9.594   3.068  0.0456 -0.2187  0.0745
    1DPPC   GL119023   9.877   9.476   3.481 -0.1119  0.2004 -0.1807
    1DPPC   GL219024   9.883   9.173   3.542  0.1330 -0.4165 -0.0813
    1DPPC   C1A19025  10.132   9.410   3.894 -0.0705  0.1736 -0.0512
    1DPPC   C2A19026  10.318   9.466   4.322 -0.0887  0.5041  0.2144
    1DPPC   C3A19027  10.407   9.560   4.698  0.1566 -0.1057 -0.0442
    1DPPC   C4A19028  10.424   9.759   5.136  0.1071 -0.1675  0.1544
    1DPPC   C1B19029   9.652   9.233   3.902 -0.0727  0.0548 -0.0709
    1DPPC   C2B19030   9.684   9.347   4.315 -0.3254 -0.0509  0.1541
    1DPPC   C3B19031   9.879   9.486   4.719  0.0969 -0.1702  0.0034
    1DPPC   C4B19032   9.952   9.546   5.174  0.0042 -0.0948 -0.1628
    1DPPC   NC319033  22.753  18.473   2.760  0.1372  0.0181  0.0624
    1DPPC   PO419034  22.772  18.891   2.839  0.0720  0.0999 -0.0960
    1DPPC   GL119035  23.044  18.918   3.118  0.1239 -0.0489  0.1915
    1DPPC   GL219036  23.417  18.937   3.168 -0.0562 -0.3504  0.2170
    1DPPC   C1A19037  23.155  18.692   3.521 -0.2280  0.0100  0.0893
    1DPPC   C2A19038  23.211  18.689   3.904 -0.1079  0.1961 -0.2281
    1DPPC   C3A19039  23.358  18.509   4.293  0.0272  0.0898  0.1702
    1DPPC   C4A19040  23.128  18.332   4.697 -0.0707 -0.1515  0.0833
    1DPPC   C1B19041  23.560  19.018   3.568 -0.0661  0.0499 -0.0918
    1DPPC   C2B19042  23.663  18.838   4.028  0.3485 -0.0976  0.3697
    1DPPC   C3B19043  23.831  18.677   4.412 -0.1350  0.1916 -0.0193
    1DPPC   C4B19044  24.229  18.543   4.590 -0.1424 -0.2253 -0.1975
    1DPPC   NC319045  17.548  13.964   2.082 -0.1169  0.0508 -0.1310
    1DPPC   PO419046  17.843  14.212   2.244 -0.0073 -0.0647  0.1752
    1DPPC   GL119047  17.704  14.326   2.615 -0.0869  0.0799 -0.0826
    1DPPC   GL219048  17.963  14.322   2.760 -0.0791  0.1963  0.3376
    1DPPC   C1A19049  17.506  14.148   2.927 -0.0876 -0.1508  0.2620
    1DPPC   C2A19050  17.431  14.139   3.410 -0.2035 -0.0028  0.2144
    1DPPC   C3A19051  17.669  14.340   3.756  0.0465 -0.3324  0.0603
    1DPPC   C4A19052  17.755  14.262   4.175 -0.0010 -0.1729 -0.2739
    1DPPC   C1B19053  17.978  13.933   2.877  0.3292 -0.0701  0.4198
    1DPPC   C2B19054  17.683  13.647   3.107 -0.1819 -0.1040  0.4074
    1DPPC   C3B19055  17.508  13.509   3.445  0.0771 -0.3051 -0.0158
    1DPPC   C4B19056  17.203  13.244   3.591 -0.3614 -0.0656 -0.2725
    1DPPC   NC319057  13.077  11.909   2.231  0.1544  0.2097  0.4162
    1DPPC   PO419058  13.194  11.425   2.434  0.1107 -0.0688  0.1352
    1DPPC   GL119059  13.336  11.548   2.837  0.2155 -0.2568 -0.0235
    1DPPC   GL219060  13.706  11.597   2.875  0.1796  0.1744  0.3082
    1DPPC   C1A19061  13.101  11.472   3.127  0.2357 -0.2575  0.1659
    1DPPC   C2A19062  13.230  11.732   3.497 -0.2879  0.1904  0.1997
    1DPPC   C3A19063  13.333  11.758   3.863 -0.0903 -0.0525 -0.0811
    1DPPC   C4A19064  13.449  11.804   4.314  0.0182 -0.4307  0.1693
    1DPPC   C1B19065  13.574  11.424   3.316  0.0952 -0.0487 -0.2178
    1DPPC   C2B19066  13.603  11.417   3.714 -0.3553 -0.1118  0.5251
    1DPPC   C3B19067  13.654  11.389   4.124 -0.0928 -0.3070  0.1076
    1DPPC   C4B19068  13.645  11.230   4.507  0.0096 -0.0194  0.1825
    1DPPC   NC319069  20.926  18.296   2.132  0.4467 -0.1109  0.0322
    1DPPC   PO419070  20.687  18.434   2.578  0.2849  0.2683 -0.0655
    1DPPC   GL119071  20.673  18.339   3.068 -0.1131 -0.2327 -0.0012
    1DPPC   GL219072  20.620  18.055   3.045  0.2537  0.0409 -0.1616
    1DPPC   C1A19073  20.426  18.379   3.441 -0.1518  0.1055 -0.2611
    1DPPC   C2A19074  20.393  18.290   3.917  0.1115 -0.2347 -0.0686
    1DPPC   C3A19075  20.528  18.211   4.304  0.0577  0.0759 -0.1887
    1DPPC   C4A19076  20.266  18.192   4.680  0.1179  0.0423 -0.1837
    1DPPC   C1B19077  20.474  17.861   3.391 -0.0526  0.0412  0.2264
    1DPPC   C2B19078  20.641  17.453   3.443 -0.3746 -0.0422 -0.0736
    1DPPC   C3B19079  20.652  17.297   3.900  0.1727  0.0688 -0.0510
    1DPPC   C4B19080  20.787  17.407   4.248  0.1678 -0.3759  0.0544
    1DPPC   NC319081  13.521  17.540   2.062 -0.1588  0.1736  0.0605
    1DPPC   PO419082  13.777  17.108   2.064  0.0521 -0.0544 -0.1733
    1DPPC   GL119083  13.780  16.871   2.454  0.0147  0.0938 -0.0147
    1DPPC   GL219084  13.687  16.615   2.591 -0.2094  0.1563  0.1564
    1DPPC   C1A19085  13.729  16.985   2.875 -0.3041 -0.1228 -0.2617
    1DPPC   C2A19086  13.689  16.970   3.308  0.2185  0.0473  0.2125
    1DPPC   C3A19087  13.825  16.902   3.641 -0.0337 -0.2774 -0.2972
    1DPPC   C4A19088  13.865  16.766   4.017  0.1603  0.0334 -0.2829
    1DPPC   C1B19089  13.878  16.323   2.957 -0.2010  0.2235  0.2461
    1DPPC   C2B19090  13.929  16.250   3.316 -0.0992  0.1049  0.5215
    1DPPC   C3B19091  13.968  16.211   3.806  0.0154  0.1714 -0.1397
    1DPPC   C4B19092  13.736  16.318   4.265  0.1082  0.1451  0.0732
    1DPPC   NC319093  16.857  19.972   2.770  0.1212  0.0507 -0.0740
    1DPPC   PO419094  17.178  19.927   2.998 -0.2158  0.1569 -0.2377
    1DPPC   GL119095  16.929  19.968   3.328  0.2794  0.0860  0.2586
    1DPPC   GL219096  17.066  20.283   3.443  0.2242  0.2827 -0.0681
    1DPPC   C1A19097  16.800  19.965   3.754  0.3297  0.0383 -0.0927
    1DPPC   C2A19098  16.704  19.851   4.174  0.1109  0.0528 -0.0707
    1DPPC   C3A19099  16.439  19.806   4.547  0.0818  0.1103  0.0577
    1DPPC   C4A19100  16.488  19.713   4.926  0.1780 -0.0764  0.0213
    1DPPC   C1B19101  17.179  20.235   3.874  0.0882 -0.2773 -0.0507
    1DPPC   C2B19102  17.009  20.288   4.252  0.0662  0.0495  0.2026
    1DPPC   C3B19103  16.883  20.090   4.627  0.0567  0.0923  0.3905
    1DPPC   C4B19104  16.853  20.112   5.015 -0.2382 -0.1897 -0.0055
    1DPPC   NC319105  25.618  21.861   2.984  0.1939  0.2274  0.0276
    1DPPC   PO419106  25.714  22.285   2.964  0.1843  0.0986 -0.0817
    1DPPC   GL119107  25.806  22.122   3.396  0.1107  0.2427 -0.3246
    1DPPC   GL219108  25.966  21.766   3.387 -0.2427 -0.1838  0.1533
    1DPPC   C1A19109  25.666  21.967   3.812 -0.4753  0.1900 -0.0779
    1DPPC   C2A19110  25.504  21.646   4.047  0.1688  0.0006 -0.0666
    1DPPC   C3A19111  25.219  21.620   4.443  0.1729 -0.2101 -0.0381
    1DPPC   C4A19112  24.973  21.354   4.859 -0.1581  0.0074 -0.0364
    1DPPC   C1B19113  26.079  21.624   3.777  0.0109 -0.2392 -0.1621
    1DPPC   C2B19114  26.050  21.817   4.227  0.0833 -0.0200  0.0874
    1DPPC   C3B19115  26.156  22.036   4.504 -0.0650  0.1106  0.0062
    1DPPC   C4B19116  26.116  22.351   4.803 -0.1989 -0.1882  0.1431
    1DPPC   NC319117  15.361   7.528   2.793  0.0001  0.1304 -0.1400
    1DPPC   PO419118  15.767   7.642   2.715 -0.0436 -0.2290 -0.2006
    1DPPC   GL119119  15.717   7.755   3.116  0.0835  0.2908 -0.0071
    1DPPC   GL219120  15.522   7.624   3.269  0.1523  0.0566  0.1010
    1DPPC   C1A19121  15.932   7.657   3.476  0.0475 -0.0088 -0.1246
    1DPPC   C2A19122  16.076   7.648   3.857  0.1689 -0.0149 -0.0908
    1DPPC   C3A19123  16.119   7.910   4.025  0.1055 -0.1930 -0.3599
    1DPPC   C4A19124  16.291   8.341   3.987 -0.2526 -0.0347  0.0589
    1DPPC   C1B19125  15.475   7.837   3.646  0.1152  0.0508 -0.4482
    1DPPC   C2B19126  15.638   7.925   3.928 -0.0319  0.0699  0.0567
    1DPPC   C3B19127  15.584   7.869   4.338 -0.0253 -0.0176 -0.0090
    1DPPC   C4B19128  15.461   7.805   4.716 -0.1265 -0.2337 -0.3356
    1DPPC   NC319129  13.927   8.252   3.151  0.1211  0.0819 -0.0311
    1DPPC   PO419130  13.717   8.569   3.215 -0.0336  0.1898 -0.0411
    1DPPC   GL119131  13.739   8.565   3.676 -0.2945  0.0619 -0.4385
    1DPPC   GL219132  14.005   8.396   3.652  0.1541  0.0383 -0.1612
    1DPPC   C1A19133  13.613   8.519   4.205 -0.0540 -0.1404  0.0593
    1DPPC   C2A19134  13.295   8.506   4.620  0.0064 -0.1252 -0.0139
    1DPPC   C3A19135  13.284   8.430   5.075  0.0835 -0.1666  0.0969
    1DPPC   C4A19136  13.576   8.267   5.318 -0.1623  0.1083  0.1771
    1DPPC   C1B19137  14.067   8.405   4.095 -0.0751 -0.0648  0.0491
    1DPPC   C2B19138  13.962   8.303   4.575 -0.0806  0.0341  0.0111
    1DPPC   C3B19139  14.202   8.351   4.992  0.0804  0.0295 -0.0531
    1DPPC   C4B19140  14.211   8.329   5.476 -0.0933 -0.1296 -0.1602
    1DPPC   NC319141  19.997  17.012   2.317  0.0612 -0.2381 -0.1144
    1DPPC   PO419142  19.928  17.507   2.474 -0.1640 -0.1240 -0.0395
    1DPPC   GL119143  20.080  17.546   2.835  0.0381 -0.2428  0.0204
    1DPPC   GL219144  20.252  17.747   2.801 -0.2870  0.2026  0.0090
    1DPPC   C1A19145  20.188  17.396   3.228  0.2690  0.1846 -0.1328
    1DPPC   C2A19146  20.212  17.286   3.634 -0.0481  0.2124  0.0957
    1DPPC   C3A19147  20.118  17.319   4.113 -0.0262 -0.0704  0.0271
    1DPPC   C4A19148  20.271  17.408   4.506  0.1647  0.2254  0.2397
    1DPPC   C1B19149  20.607  17.487   2.943  0.2758 -0.2196 -0.0123
    1DPPC   C2B19150  20.967  17.221   3.142  0.0088  0.0908 -0.1254
    1DPPC   C3B19151  21.037  17.229   3.583  0.2230  0.2730 -0.3168
    1DPPC   C4B19152  21.083  17.118   3.965  0.0637  0.2531 -0.0185
    1DIPC   NC319153  24.398  26.027   2.919  0.1883  0.1035 -0.0423
    1DIPC   PO419154  24.060  26.054   3.246  0.4281 -0.0397  0.0368
    1DIPC   GL119155  24.277  25.788   3.528  0.0401  0.0659 -0.0551
    1DIPC   GL219156  24.549  25.811   3.553  0.0733 -0.2708 -0.0034
    1DIPC   C1A19157  24.147  25.762   3.954  0.2393  0.0147 -0.1212
    1DIPC   D2A19158  24.186  25.685   4.465  0.2518  0.1814  0.0230
    1DIPC   D3A19159  24.524  25.807   4.704 -0.0984  0.1407  0.2720
    1DIPC   C4A19160  24.850  25.822   4.509  0.2008 -0.0479 -0.2779
    1DIPC   C1B19161  24.344  26.187   3.772 -0.2023  0.0294 -0.3783
    1DIPC   D2B19162  23.911  26.217   3.769  0.0656 -0.3237  0.3287
    1DIPC   D3B19163  24.085  26.221   4.230 -0.0938 -0.1150 -0.0857
    1DIPC   C4B19164  24.529  26.145   4.289 -0.4173 -0.2122 -0.1588
    1DIPC   NC319165  15.968  25.031   2.504 -0.2319  0.3696  0.0582
    1DIPC   PO419166  15.673  24.918   2.867 -0.1861  0.0057 -0.2096
    1DIPC   GL119167  15.440  24.838   3.252  0.1892  0.1811  0.1159
    1DIPC   GL219168  15.397  24.946   3.604  0.2987 -0.1499 -0.0694
    1DIPC   C1A19169  15.364  24.441   3.525  0.1764 -0.0752  0.2115
    1DIPC   D2A19170  15.140  24.298   3.884 -0.2099 -0.2009  0.1491
    1DIPC   D3A19171  15.561  24.188   4.003  0.1204 -0.1404  0.2171
    1DIPC   C4A19172  15.595  23.714   4.130  0.2947 -0.2114 -0.1772
    1DIPC   C1B19173  15.503  24.744   3.980 -0.3754  0.0252  0.4111
    1DIPC   D2B19174  15.487  24.915   4.356 -0.0222  0.0332  0.3111
    1DIPC   D3B19175  15.791  24.979   4.684  0.1342  0.1019 -0.1932
    1DIPC   C4B19176  15.713  25.372   4.898  0.2256  0.0026  0.2859
    1DIPC   NC319177   0.849   2.784   2.793  0.0568  0.0175  0.0078
    1DIPC   PO419178   0.429   2.981   3.082 -0.0609  0.1262  0.1620
    1DIPC   GL119179   0.229   3.038   3.508 -0.1174 -0.2158 -0.0260
    1DIPC   GL219180  -0.124   3.025   3.729  0.0345  0.3823  0.1888
    1DIPC   C1A19181   0.345   3.355   3.787 -0.0432 -0.0338  0.2142
    1DIPC   D2A19182   0.612   3.201   4.164  0.2648  0.2110 -0.1604
    1DIPC   D3A19183   0.625   3.590   4.418 -0.2269 -0.0133  0.0769
    1DIPC   C4A19184   0.617   3.611   4.972  0.0687  0.3257  0.1845
    1DIPC   C1B19185  -0.165   3.047   4.119  0.0354  0.1642 -0.2099
    1DIPC   D2B19186   0.030   2.993   4.552  0.0706 -0.1200  0.1018
    1DIPC   D3B19187  -0.155   3.278   4.761 -0.3255 -0.1495  0.2349
    1DIPC   C4B19188  -0.339   3.663   4.749 -0.0492  0.0491  0.4595
    1DIPC   NC319189  15.347  26.981   2.900 -0.1319 -0.1635 -0.3624
    1DIPC   PO419190  15.657  26.994   3.167  0.0856 -0.1507  0.0570
    1DIPC   GL119191  15.627  27.093   3.535  0.0146  0.2116 -0.3395
    1DIPC   GL219192  15.578  26.771   3.744 -0.0773  0.0913 -0.2163
    1DIPC   C1A19193  15.363  27.273   3.902 -0.0301  0.0031 -0.0569
    1DIPC   D2A19194  15.513  27.346   4.297  0.2585 -0.1074 -0.0195
    1DIPC   D3A19195  15.674  27.173   4.694  0.1527 -0.0071 -0.2482
    1DIPC   C4A19196  15.958  27.328   4.914 -0.3835  0.3634 -0.0516
    1DIPC   C1B19197  15.923  26.430   3.986  0.0102  0.1435  0.0635
    1DIPC   D2B19198  16.192  26.048   3.975  0.1730  0.0719  0.2672
    1DIPC   D3B19199  15.972  25.645   4.080 -0.1396 -0.0254 -0.0673
    1DIPC   C4B19200  15.881  25.531   4.426  0.0810  0.0569  0.1322
    1DIPC   NC319201   3.980  11.794   2.645 -0.2619 -0.1237  0.0026
    1DIPC   PO419202   3.889  12.185   2.749  0.1299  0.3985  0.0668
    1DIPC   GL119203   3.669  12.283   3.048  0.1171  0.1653  0.0811
    1DIPC   GL219204   3.429  12.482   3.093  0.0801 -0.0232  0.1266
    1DIPC   C1A19205   3.801  12.391   3.479 -0.0461 -0.2087 -0.3437
    1DIPC   D2A19206   3.886  12.578   3.927  0.2690  0.2299 -0.0435
    1DIPC   D3A19207   3.832  12.862   3.691  0.1449 -0.1867  0.0124
    1DIPC   C4A19208   3.573  12.938   3.253 -0.2001 -0.1476 -0.4665
    1DIPC   C1B19209   3.232  12.624   3.426  0.2123  0.0432  0.5674
    1DIPC   D2B19210   3.198  13.039   3.631  0.1766 -0.1541  0.3253
    1DIPC   D3B19211   2.815  12.840   3.842 -0.0227 -0.1262  0.0815
    1DIPC   C4B19212   2.968  12.607   4.319  0.0735  0.2054 -0.1881
    1DIPC   NC319213  17.856   7.669   1.833 -0.0276 -0.0983  0.1470
    1DIPC   PO419214  17.795   7.779   2.302  0.0243  0.2441  0.4154
    1DIPC   GL119215  18.068   7.572   2.597 -0.2683  0.0214  0.3493
    1DIPC   GL219216  18.156   7.332   2.756  0.0658 -0.4154  0.2347
    1DIPC   C1A19217  18.141   7.708   3.081 -0.0361 -0.3385 -0.2798
    1DIPC   D2A19218  17.890   7.679   3.530  0.1130  0.0761  0.0502
    1DIPC   D3A19219  17.825   8.002   3.747 -0.3789 -0.1197 -0.0581
    1DIPC   C4A19220  18.123   8.135   4.037 -0.2706 -0.1899 -0.0576
    1DIPC   C1B19221  18.210   7.202   3.186  0.0835 -0.2706  0.1172
    1DIPC   D2B19222  18.426   7.475   3.485  0.2114 -0.1652 -0.0061
    1DIPC   D3B19223  18.281   7.570   3.930 -0.1407 -0.2524 -0.1985
    1DIPC   C4B19224  18.573   7.842   4.073 -0.2474  0.1468 -0.1144
    1DIPC   NC319225   0.118  10.828   2.645  0.1463  0.0592 -0.1147
    1DIPC   PO419226  -0.368  10.732   2.685  0.3424  0.1473 -0.2024
    1DIPC   GL119227  -0.554  10.657   3.095  0.2816  0.2196  0.3587
    1DIPC   GL219228  -0.723  10.946   3.109  0.2077 -0.3478  0.0441
    1DIPC   C1A19229  -0.858  10.724   3.510 -0.0768  0.0326  0.1410
    1DIPC   D2A19230  -1.257  10.622   3.599 -0.0183  0.1533 -0.3223
    1DIPC   D3A19231  -1.543  10.787   3.300 -0.1476 -0.0421  0.1866
    1DIPC   C4A19232  -1.874  11.036   3.543 -0.1088  0.0114  0.0028
    1DIPC   C1B19233  -0.599  11.436   3.176 -0.1220 -0.0978  0.0046
    1DIPC   D2B19234  -0.271  11.728   3.485 -0.2314 -0.0750  0.0619
    1DIPC   D3B19235  -0.135  11.797   3.911 -0.1620  0.0437  0.1988
    1DIPC   C4B19236  -0.362  12.166   4.110  0.0880  0.3396  0.0372
    1DIPC   NC319237  26.828  20.053   2.456 -0.1733 -0.0554  0.0072
    1DIPC   PO419238  26.850  19.587   2.652  0.1111 -0.2330  0.0983
    1DIPC   GL119239  27.005  19.391   3.053  0.0416 -0.2478  0.0643
    1DIPC   GL219240  27.120  19.511   3.245  0.1306 -0.1107  0.1218
    1DIPC   C1A19241  26.852  19.015   3.215  0.1143 -0.0933 -0.0640
    1DIPC   D2A19242  26.858  18.872   3.604 -0.0270 -0.1839  0.0851
    1DIPC   D3A19243  26.662  18.705   4.028  0.0410  0.3939  0.0840
    1DIPC   C4A19244  26.550  18.699   4.387  0.3239 -0.0213 -0.0660
    1DIPC   C1B19245  27.218  19.353   3.627 -0.1111  0.0590 -0.0879
    1DIPC   D2B19246  27.324  18.992   3.864 -0.3854  0.0478  0.3013
    1DIPC   D3B19247  27.085  18.878   4.091 -0.1643  0.1145 -0.0838
    1DIPC   C4B19248  27.095  18.503   4.282  0.1186 -0.1198 -0.0114
    1DIPC   NC319249  13.240  28.461   3.512  0.0142  0.0495  0.0245
    1DIPC   PO419250  13.309  28.957   3.596 -0.0147 -0.2219 -0.0613
    1DIPC   GL119251  13.213  29.109   4.021 -0.0250  0.2525 -0.3919
    1DIPC   GL219252  13.393  29.445   4.027  0.1492  0.0613  0.1232
    1DIPC   C1A19253  12.958  29.389   4.326  0.1081 -0.2896  0.3511
    1DIPC   D2A19254  12.983  29.382   4.701 -0.0922  0.4889 -0.0802
    1DIPC   D3A19255  12.857  29.827   4.880 -0.0958 -0.0009  0.0549
    1DIPC   C4A19256  12.965  29.911   5.290  0.1588  0.1499  0.1066
    1DIPC   C1B19257  13.809  29.463   4.144  0.0254  0.1234  0.0381
    1DIPC   D2B19258  14.206  29.232   4.213  0.0421  0.0862 -0.1122
    1DIPC   D3B19259  14.293  29.405   4.620  0.1329  0.0248 -0.2151
    1DIPC   C4B19260  14.181  29.225   4.946  0.0359  0.1842 -0.3059
    1DIPC   NC319261   1.688  25.326   2.338 -0.2665  0.2194 -0.1798
    1DIPC   PO419262   1.903  25.681   2.299 -0.2481 -0.3052 -0.0054
    1DIPC   GL119263   1.914  25.927   2.729 -0.4926  0.0661  0.0945
    1DIPC   GL219264   1.663  26.166   2.814 -0.0570 -0.4042 -0.0339
    1DIPC   C1A19265   2.186  26.264   3.003 -0.0397 -0.3424  0.1184
    1DIPC   D2A19266   1.982  26.633   3.198  0.1111  0.2609  0.2474
    1DIPC   D3A19267   2.031  26.525   3.544  0.0190 -0.1518 -0.1710
    1DIPC   C4A19268   2.364  26.518   3.845  0.1283 -0.1447 -0.1157
    1DIPC   C1B19269   1.806  26.142   3.286  0.0479  0.0563  0.0050
    1DIPC   D2B19270   1.781  26.091   3.646  0.0012 -0.2091  0.0544
    1DIPC   D3B19271   1.826  25.781   3.939  0.3664  0.0936 -0.1438
    1DIPC   C4B19272   1.527  25.547   4.194 -0.0680  0.0793 -0.1311
    1DIPC   NC319273  27.585  13.895   1.970 -0.2627  0.1949 -0.1105
    1DIPC   PO419274  27.567  14.103   2.342  0.0658 -0.1067 -0.0707
    1DIPC   GL119275  27.618  13.976   2.813  0.0678  0.2467 -0.4228
    1DIPC   GL219276  27.863  13.964   2.846  0.1104  0.2454 -0.1552
    1DIPC   C1A19277  27.386  13.651   3.071  0.0476  0.3978 -0.1424
    1DIPC   D2A19278  27.182  13.492   3.373  0.0807 -0.1266 -0.0085
    1DIPC   D3A19279  27.438  13.479   3.809 -0.1877 -0.3419  0.1355
    1DIPC   C4A19280  27.568  12.976   3.971  0.0809 -0.0017  0.1732
    1DIPC   C1B19281  27.669  14.085   3.266 -0.2023 -0.0731  0.0378
    1DIPC   D2B19282  27.561  13.943   3.686  0.0885 -0.0010  0.0859
    1DIPC   D3B19283  27.232  13.981   3.933 -0.0019  0.0933  0.1234
    1DIPC   C4B19284  27.028  14.363   4.062 -0.0072 -0.3455 -0.3059
    1DIPC   NC319285  13.731   0.923   3.518 -0.2994 -0.1239  0.0657
    1DIPC   PO419286  14.175   1.165   3.373  0.1287  0.5366  0.1112
    1DIPC   GL119287  14.133   1.183   3.794 -0.1188  0.0045  0.3644
    1DIPC   GL219288  14.513   1.240   3.765  0.1038 -0.1058 -0.1006
    1DIPC   C1A19289  14.016   1.127   4.230 -0.2737  0.0208  0.1503
    1DIPC   D2A19290  13.659   0.934   4.573 -0.0269 -0.1938  0.0257
    1DIPC   D3A19291  13.556   1.295   4.867 -0.0089  0.0934 -0.1824
    1DIPC   C4A19292  13.926   1.404   5.107 -0.2188 -0.1943 -0.0655
    1DIPC   C1B19293  14.699   1.250   4.132 -0.2852 -0.1064 -0.4625
    1DIPC   D2B19294  14.533   1.310   4.502  0.0843 -0.1675 -0.1013
    1DIPC   D3B19295  14.425   1.590   4.267 -0.2398 -0.1978 -0.1120
    1DIPC   C4B19296  14.265   1.886   4.442  0.0794  0.0753  0.2740
    1DIPC   NC319297  28.907  28.960   2.945  0.0172  0.2996  0.0970
    1DIPC   PO419298  29.126  28.551   2.987 -0.0024 -0.1246 -0.0184
    1DIPC   GL119299  29.069  28.637   3.405 -0.0909  0.0274  0.1292
    1DIPC   GL219300  29.249  28.448   3.533 -0.3111 -0.0093  0.0341
    1DIPC   C1A19301  28.930  28.732   3.793 -0.0527 -0.3288  0.0829
    1DIPC   D2A19302  28.902  28.545   4.194 -0.0026 -0.0077 -0.0047
    1DIPC   D3A19303  28.642  28.234   4.410  0.1205  0.1486  0.5221
    1DIPC   C4A19304  28.363  28.409   4.704 -0.1237 -0.1842  0.0265
    1DIPC   C1B19305  29.448  28.049   3.553  0.1401 -0.1896 -0.2631
    1DIPC   D2B19306  29.640  27.712   3.759  0.0676  0.0046 -0.1506
    1DIPC   D3B19307  29.310  27.819   3.972 -0.2798 -0.2123 -0.0517
    1DIPC   C4B19308  29.120  28.162   3.876 -0.0000 -0.1585 -0.0682
    1DIPC   NC319309  27.103   1.634   2.813  0.1834  0.0817  0.0707
    1DIPC   PO419310  27.301   1.807   3.154 -0.2542 -0.1927  0.1746
    1DIPC   GL119311  27.494   2.114   3.395  0.3189  0.1221 -0.2438
    1DIPC   GL219312  27.251   2.253   3.476 -0.0020  0.2933  0.2817
    1DIPC   C1A19313  27.658   1.905   3.825  0.3182  0.2860 -0.2283
    1DIPC   D2A19314  27.766   1.936   4.262  0.0108  0.2262 -0.3568
    1DIPC   D3A19315  28.047   1.615   4.062  0.0082  0.0306 -0.0951
    1DIPC   C4A19316  28.365   1.780   4.094  0.0468 -0.0839  0.0897
    1DIPC   C1B19317  27.149   2.283   3.985 -0.0896 -0.0161  0.1691
    1DIPC   D2B19318  27.112   2.365   4.299  0.3124  0.0479  0.1581
    1DIPC   D3B19319  27.251   1.965   4.277 -0.2989 -0.2418  0.1454
    1DIPC   C4B19320  27.478   1.726   4.640 -0.0606 -0.1094 -0.0767
    1DIPC   NC319321   2.429   6.003   2.656  0.1076 -0.1724 -0.0543
    1DIPC   PO419322   2.461   5.908   3.071 -0.0289  0.4195  0.0227
    1DIPC   GL119323   2.153   5.887   3.383 -0.1141 -0.0668  0.1794
    1DIPC   GL219324   2.449   5.853   3.574 -0.1506  0.1038  0.1639
    1DIPC   C1A19325   2.028   6.022   3.833 -0.0223  0.0542  0.1271
    1DIPC   D2A19326   1.980   6.143   4.308  0.3679 -0.1816  0.0237
    1DIPC   D3A19327   2.033   6.543   4.020 -0.0382  0.1930 -0.2767
    1DIPC   C4A19328   2.097   6.880   3.955  0.0968  0.0811  0.2441
    1DIPC   C1B19329   2.421   5.874   4.050 -0.1575 -0.0619  0.2306
    1DIPC   D2B19330   2.375   5.853   4.519  0.1544 -0.0049 -0.1989
    1DIPC   D3B19331   2.763   5.636   4.572 -0.0275 -0.2161  0.1558
    1DIPC   C4B19332   3.039   5.627   4.968 -0.0835 -0.2948  0.0517
    1DIPC   NC319333   8.535   3.591   3.864  0.1367 -0.1494  0.0823
    1DIPC   PO419334   8.749   3.162   3.809 -0.0402  0.0309  0.2633
    1DIPC   GL119335   8.750   3.042   4.243  0.0492  0.0321 -0.0879
    1DIPC   GL219336   8.630   2.716   4.086 -0.2462 -0.1311  0.2880
    1DIPC   C1A19337   8.739   3.262   4.635  0.0787  0.0215  0.2524
    1DIPC   D2A19338   8.943   3.273   4.963  0.2235  0.2708 -0.2643
    1DIPC   D3A19339   9.211   2.913   5.105 -0.1620 -0.0116  0.3422
    1DIPC   C4A19340   9.584   2.748   4.999  0.1023 -0.1435 -0.0792
    1DIPC   C1B19341   8.470   2.751   4.520 -0.2631  0.2035  0.0214
    1DIPC   D2B19342   8.444   2.933   4.909 -0.0766  0.0224  0.1683
    1DIPC   D3B19343   8.721   2.887   5.262  0.0534  0.1234 -0.1799
    1DIPC   C4B19344   8.925   3.129   5.510  0.1886 -0.0840 -0.2193
    1DIPC   NC319345  24.615   6.979   2.451 -0.0496 -0.4069  0.1142
    1DIPC   PO419346  24.722   6.954   2.931  0.2161 -0.0805 -0.3188
    1DIPC   GL119347  24.824   6.863   3.430 -0.0605 -0.0653 -0.0898
    1DIPC   GL219348  24.510   6.926   3.592  0.0753 -0.0361 -0.2655
    1DIPC   C1A19349  24.876   6.639   3.869  0.4530 -0.0171 -0.0540
    1DIPC   D2A19350  25.060   6.619   4.137 -0.0203 -0.1045 -0.1441
    1DIPC   D3A19351  25.022   6.707   4.566 -0.2181  0.0536  0.2431
    1DIPC   C4A19352  24.836   6.354   4.832 -0.1919 -0.1582  0.1402
    1DIPC   C1B19353  24.184   7.118   3.909 -0.0123  0.1747 -0.0199
    1DIPC   D2B19354  23.779   7.042   4.254  0.0087 -0.0356  0.2787
    1DIPC   D3B19355  23.992   7.445   4.276  0.0470  0.0359  0.0777
    1DIPC   C4B19356  24.403   7.532   4.241  0.3622  0.2801  0.2190
    1DIPC   NC319357   7.874  17.794   2.034  0.1937  0.2105  0.1399
    1DIPC   PO419358   8.196  17.507   2.035 -0.3417 -0.0704  0.0914
    1DIPC   GL119359   8.037  17.514   2.465  0.0406  0.0029  0.1635
    1DIPC   GL219360   7.802  17.247   2.412  0.0615  0.0459  0.1001
    1DIPC   C1A19361   8.005  17.643   2.848 -0.2113 -0.0999 -0.0475
    1DIPC   D2A19362   7.940  17.661   3.315  0.0299 -0.1059 -0.2802
    1DIPC   D3A19363   7.773  17.355   3.557  0.4840 -0.3269  0.0027
    1DIPC   C4A19364   7.862  16.909   3.673  0.2334 -0.1957 -0.3698
    1DIPC   C1B19365   7.393  17.275   2.604  0.0368  0.1138 -0.1327
    1DIPC   D2B19366   7.326  17.112   2.972  0.0501  0.0094  0.1312
    1DIPC   D3B19367   7.741  17.256   2.940  0.2258  0.1205  0.0291
    1DIPC   C4B19368   8.006  17.052   3.219 -0.1120  0.0469 -0.0024
    1DIPC   NC319369   9.814  25.441   2.943  0.0324  0.2436 -0.1330
    1DIPC   PO419370  10.146  25.188   2.680  0.1160 -0.0746  0.0852
    1DIPC   GL119371  10.229  25.199   3.113  0.1063 -0.3261 -0.1672
    1DIPC   GL219372  10.570  25.003   3.212 -0.0442  0.0116  0.0904
    1DIPC   C1A19373  10.272  25.097   3.576  0.2063  0.1747 -0.2445
    1DIPC   D2A19374  10.625  25.020   3.849  0.1066  0.0398 -0.1521
    1DIPC   D3A19375  10.673  24.940   4.172  0.3304 -0.2486  0.2262
    1DIPC   C4A19376  10.409  25.063   4.533 -0.0868 -0.0899  0.1199
    1DIPC   C1B19377  10.654  24.657   3.473  0.2230  0.0752 -0.0062
    1DIPC   D2B19378  10.593  24.522   3.837 -0.1387  0.1373 -0.3365
    1DIPC   D3B19379  10.243  24.547   4.154  0.0013  0.1417 -0.0304
    1DIPC   C4B19380  10.123  25.034   4.134  0.0402 -0.1972  0.3338
    1DIPC   NC319381  10.483  28.853   2.980 -0.0381 -0.0358  0.1326
    1DIPC   PO419382  10.550  28.648   3.308  0.0946 -0.3532 -0.1910
    1DIPC   GL119383  10.521  28.655   3.717 -0.1417 -0.0464  0.4211
    1DIPC   GL219384  10.687  28.598   3.992 -0.2616 -0.0136 -0.0327
    1DIPC   C1A19385  10.150  28.693   4.088  0.2505  0.3404  0.2879
    1DIPC   D2A19386   9.986  28.857   4.502 -0.1458  0.0657  0.0210
    1DIPC   D3A19387   9.994  29.000   4.932 -0.1404  0.0892  0.2163
    1DIPC   C4A19388   9.796  29.462   5.010 -0.2996  0.2140  0.1442
    1DIPC   C1B19389  10.551  28.786   4.409  0.0360 -0.2447  0.0784
    1DIPC   D2B19390  10.443  28.766   4.827 -0.0319 -0.2550  0.1313
    1DIPC   D3B19391  10.499  29.143   4.983  0.2361 -0.0974  0.0996
    1DIPC   C4B19392  10.290  29.311   5.434 -0.0167 -0.0880 -0.2443
    1DIPC   NC319393  11.383   2.507   3.784  0.1329 -0.0762  0.3154
    1DIPC   PO419394  11.650   2.682   3.999  0.1466 -0.1416 -0.1370
    1DIPC   GL119395  11.343   2.701   4.310  0.1928  0.2674  0.0928
    1DIPC   GL219396  11.248   2.992   4.466 -0.0132  0.0338 -0.1263
    1DIPC   C1A19397  11.358   2.378   4.573  0.0630 -0.3779 -0.1198
    1DIPC   D2A19398  11.070   2.343   4.970 -0.2537  0.1191 -0.1843
    1DIPC   D3A19399  10.659   2.523   4.875 -0.3754 -0.0080 -0.0595
    1DIPC   C4A19400  10.549   2.853   4.604  0.2659 -0.1991  0.1730
    1DIPC   C1B19401  11.175   2.817   4.825  0.3451  0.2089 -0.0227
    1DIPC   D2B19402  11.275   2.702   5.270  0.1064 -0.1778 -0.0857
    1DIPC   D3B19403  10.850   2.680   5.316 -0.1345  0.1038  0.1251
    1DIPC   C4B19404  10.602   2.789   5.641 -0.0109  0.0659 -0.0148
    1DIPC   NC319405   7.556  11.935   2.372  0.0735  0.0197  0.3030
    1DIPC   PO419406   7.417  11.942   2.818 -0.0047 -0.1696 -0.1393
    1DIPC   GL119407   7.518  12.212   3.247 -0.0260 -0.2844 -0.1345
    1DIPC   GL219408   7.514  11.991   3.537  0.1879 -0.1273 -0.1716
    1DIPC   C1A19409   7.334  12.484   3.480 -0.4241  0.0875  0.0748
    1DIPC   D2A19410   7.162  12.743   3.686 -0.0918  0.0709  0.0687
    1DIPC   D3A19411   7.179  13.029   3.983  0.2293 -0.1721 -0.2267
    1DIPC   C4A19412   7.302  12.939   4.453  0.1027 -0.2372  0.0536
    1DIPC   C1B19413   7.629  11.798   3.954 -0.1927  0.2051  0.0647
    1DIPC   D2B19414   7.678  12.107   4.328  0.0387  0.1050 -0.0492
    1DIPC   D3B19415   7.489  12.393   4.569 -0.0649  0.1185  0.0327
    1DIPC   C4B19416   7.593  12.691   4.857 -0.0350 -0.0097  0.1522
    1DIPC   NC319417  23.465  11.758   2.570  0.1899 -0.0332  0.0083
    1DIPC   PO419418  23.128  11.466   2.699  0.0483  0.2389 -0.2396
    1DIPC   GL119419  23.247  11.408   3.004 -0.0710 -0.0066 -0.0652
    1DIPC   GL219420  23.281  11.748   3.093 -0.1428  0.1123 -0.5059
    1DIPC   C1A19421  23.414  11.436   3.485 -0.0425  0.0313  0.1208
    1DIPC   D2A19422  23.060  11.225   3.748 -0.0744 -0.1030  0.1226
    1DIPC   D3A19423  23.154  10.969   4.110 -0.0880  0.0161  0.1399
    1DIPC   C4A19424  23.013  10.556   4.148 -0.1125  0.0719 -0.1815
    1DIPC   C1B19425  23.215  11.980   3.385 -0.0023  0.0705  0.3250
    1DIPC   D2B19426  23.295  12.101   3.857 -0.1540 -0.2834  0.0848
    1DIPC   D3B19427  23.133  11.701   3.914  0.2874 -0.1916 -0.1929
    1DIPC   C4B19428  22.676  11.555   3.929  0.0403  0.1514 -0.2674
    1DIPC   NC319429   6.892   8.282   3.505  0.1365  0.1026 -0.0475
    1DIPC   PO419430   6.425   8.242   3.542  0.0053  0.2252 -0.0388
    1DIPC   GL119431   6.202   8.146   3.919 -0.1157 -0.0726  0.2927
    1DIPC   GL219432   6.058   8.066   4.215  0.0818  0.3161  0.0323
    1DIPC   C1A19433   6.150   8.548   4.087 -0.3920  0.2748 -0.0961
    1DIPC   D2A19434   5.920   8.937   4.052  0.2872  0.0414  0.0355
    1DIPC   D3A19435   5.662   8.657   4.226  0.2246  0.2564  0.0451
    1DIPC   C4A19436   5.481   8.571   4.616  0.1589  0.2232 -0.2515
    1DIPC   C1B19437   6.446   7.737   4.111  0.0789 -0.1640  0.0049
    1DIPC   D2B19438   6.864   7.740   4.337  0.0095  0.1903 -0.1729
    1DIPC   D3B19439   6.569   8.138   4.524 -0.1515  0.1115 -0.3869
    1DIPC   C4B19440   6.695   8.572   4.540 -0.1434 -0.2809 -0.2663
    1DIPC   NC319441  28.409  29.046   2.903  0.1781  0.0325  0.0192
    1DIPC   PO419442  28.506  28.595   2.988 -0.0461 -0.0438 -0.2426
    1DIPC   GL119443  28.639  28.284   3.364  0.1609  0.0100  0.0650
    1DIPC   GL219444  28.938  28.096   3.328  0.0081 -0.3624  0.1595
    1DIPC   C1A19445  28.600  28.262   3.771 -0.4062 -0.0850 -0.0384
    1DIPC   D2A19446  28.156  28.174   4.081  0.4894  0.2533  0.2752
    1DIPC   D3A19447  28.297  28.595   4.185 -0.0203  0.0782  0.1679
    1DIPC   C4A19448  28.336  28.874   3.773  0.0764 -0.1636 -0.2398
    1DIPC   C1B19449  28.892  27.705   3.485  0.2307 -0.2783 -0.1637
    1DIPC   D2B19450  28.695  27.334   3.732  0.2429 -0.2380  0.1908
    1DIPC   D3B19451  28.603  27.425   4.177 -0.0259 -0.0164  0.0783
    1DIPC   C4B19452  28.273  27.706   4.306  0.1128 -0.2761  0.4925
    1DIPC   NC319453   9.420  23.552   2.459  0.0453 -0.2034 -0.2567
    1DIPC   PO419454   9.730  23.139   2.372 -0.0431  0.1865  0.1614
    1DIPC   GL119455   9.761  22.896   2.774  0.0633  0.0165  0.0180
    1DIPC   GL219456   9.974  22.948   2.924  0.2032 -0.1313  0.0365
    1DIPC   C1A19457   9.824  22.473   2.951  0.2176  0.0678  0.1218
    1DIPC   D2A19458   9.840  22.063   2.905 -0.2255 -0.0415 -0.0200
    1DIPC   D3A19459   9.383  22.171   2.988 -0.2338  0.1669  0.0857
    1DIPC   C4A19460   9.071  21.952   3.206 -0.1834  0.1158  0.1539
    1DIPC   C1B19461   9.775  22.892   3.298  0.1798  0.0852 -0.2609
    1DIPC   D2B19462   9.757  22.494   3.436 -0.2870  0.0073 -0.0331
    1DIPC   D3B19463   9.635  22.301   3.889 -0.0150 -0.2184 -0.2044
    1DIPC   C4B19464   9.940  22.047   4.028  0.0873 -0.0839 -0.3111
    1DIPC   NC319465  10.004  20.579   2.258  0.0862  0.3545  0.0849
    1DIPC   PO419466  10.068  20.906   2.439  0.2194 -0.1328 -0.2597
    1DIPC   GL119467   9.902  20.775   2.841 -0.0123 -0.0693 -0.2152
    1DIPC   GL219468   9.683  20.556   2.990  0.0103 -0.1289 -0.3094
    1DIPC   C1A19469   9.930  20.930   3.355 -0.1523  0.1629  0.1915
    1DIPC   D2A19470   9.829  21.124   3.765 -0.3734  0.2121 -0.0425
    1DIPC   D3A19471   9.822  21.375   3.512 -0.0914 -0.1190 -0.4059
    1DIPC   C4A19472   9.784  21.259   2.994 -0.0657  0.2158  0.0318
    1DIPC   C1B19473   9.813  20.097   2.987 -0.0292  0.3221 -0.0196
    1DIPC   D2B19474   9.753  19.692   2.742  0.1805 -0.1828  0.3057
    1DIPC   D3B19475   9.867  19.327   2.745 -0.0009 -0.2802  0.0275
    1DIPC   C4B19476   9.691  19.019   3.023  0.0611  0.2016  0.1076
    1DIPC   NC319477  24.115  22.937   3.225  0.0962 -0.0209 -0.0591
    1DIPC   PO419478  23.648  22.862   3.212  0.1624 -0.1372 -0.1768
    1DIPC   GL119479  23.815  22.891   3.633 -0.1510 -0.2742  0.2168
    1DIPC   GL219480  23.907  23.201   3.735  0.0297  0.2355 -0.0828
    1DIPC   C1A19481  23.892  22.823   4.129 -0.0559 -0.3365  0.0712
    1DIPC   D2A19482  24.002  22.740   4.583 -0.1672 -0.0977  0.2710
    1DIPC   D3A19483  24.389  22.787   4.449  0.2506 -0.0388 -0.2200
    1DIPC   C4A19484  24.810  22.933   4.566 -0.1414  0.0693 -0.0778
    1DIPC   C1B19485  23.689  23.274   4.196 -0.1047 -0.1487 -0.1069
    1DIPC   D2B19486  23.437  23.501   4.573 -0.2210  0.0733  0.1799
    1DIPC   D3B19487  23.892  23.656   4.589 -0.0999 -0.1174  0.0876
    1DIPC   C4B19488  24.147  23.626   4.972  0.2209  0.2313  0.3295
    1DIPC   NC319489   9.984  15.034   2.602  0.3420 -0.2400  0.2109
    1DIPC   PO419490   9.632  15.179   2.368  0.1927  0.0859 -0.0610
    1DIPC   GL119491   9.615  15.478   2.663 -0.1634  0.1119  0.0151
    1DIPC   GL219492   9.799  15.720   2.764 -0.0869 -0.1389  0.1173
    1DIPC   C1A19493   9.394  15.410   3.035  0.3675  0.0077  0.0291
    1DIPC   D2A19494   8.985  15.499   3.219  0.0355 -0.2309 -0.1007
    1DIPC   D3A19495   9.221  15.411   3.648  0.2662  0.0952  0.0593
    1DIPC   C4A19496   9.109  15.546   4.092  0.0539  0.3439 -0.3700
    1DIPC   C1B19497   9.781  15.884   3.112  0.0126  0.0422 -0.0513
    1DIPC   D2B19498   9.811  16.017   3.536  0.1376 -0.1030 -0.3615
    1DIPC   D3B19499   9.917  15.942   4.036  0.1075  0.3393  0.3832
    1DIPC   C4B19500   9.839  16.047   4.440  0.0154 -0.0240 -0.1826
    1DIPC   NC319501   7.888  25.919   2.726 -0.0313  0.1190  0.3475
    1DIPC   PO419502   8.148  25.588   2.724  0.1142  0.3360  0.2514
    1DIPC   GL119503   8.478  25.420   3.070 -0.1896 -0.1791 -0.1304
    1DIPC   GL219504   8.708  25.691   3.178 -0.3363 -0.0357  0.0254
    1DIPC   C1A19505   8.575  25.078   3.254 -0.2467 -0.0553  0.2855
    1DIPC   D2A19506   8.467  24.722   3.513  0.0908 -0.1341  0.0007
    1DIPC   D3A19507   8.038  24.526   3.545  0.1272  0.2687 -0.1188
    1DIPC   C4A19508   7.862  24.577   3.912 -0.2402  0.3201  0.0080
    1DIPC   C1B19509   8.588  25.437   3.585  0.0236 -0.2064 -0.1275
    1DIPC   D2B19510   8.546  25.156   3.846 -0.0871 -0.0313  0.0586
    1DIPC   D3B19511   8.151  25.020   3.764  0.0607 -0.0992  0.1778
    1DIPC   C4B19512   7.918  25.370   3.753 -0.1283  0.1847  0.1940
    1DIPC   NC319513  20.030   2.004   2.688  0.1041 -0.0669 -0.0509
    1DIPC   PO419514  19.718   1.974   3.018 -0.0198  0.1111  0.2171
    1DIPC   GL119515  19.943   1.954   3.409  0.0264 -0.1399  0.1126
    1DIPC   GL219516  19.638   2.148   3.559  0.0423 -0.3023  0.1268
    1DIPC   C1A19517  20.018   1.743   3.821  0.2639  0.1415 -0.2199
    1DIPC   D2A19518  19.752   1.530   4.017 -0.1237 -0.0692  0.2092
    1DIPC   D3A19519  19.545   1.921   4.050  0.0685 -0.0452 -0.3377
    1DIPC   C4A19520  19.280   1.858   4.392  0.0907 -0.3360  0.1121
    1DIPC   C1B19521  19.639   2.399   4.061 -0.1667  0.0086 -0.1992
    1DIPC   D2B19522  19.779   2.338   4.428 -0.0242 -0.3042 -0.1146
    1DIPC   D3B19523  20.187   2.320   4.613  0.2562 -0.2823 -0.2081
    1DIPC   C4B19524  20.542   2.671   4.702 -0.3652 -0.0247  0.0126
    1DIPC   NC319525  11.354   7.179   3.139  0.0572  0.0449  0.0641
    1DIPC   PO419526  11.694   6.931   3.357 -0.1213  0.1074 -0.2847
    1DIPC   GL119527  11.662   6.682   3.684 -0.1465  0.3247 -0.0998
    1DIPC   GL219528  11.403   6.754   3.739  0.3183 -0.1731  0.0002
    1DIPC   C1A19529  11.810   6.638   4.072 -0.3141  0.0824 -0.0360
    1DIPC   D2A19530  11.944   6.932   4.471  0.0381  0.1736 -0.3234
    1DIPC   D3A19531  12.177   6.980   4.215 -0.1657  0.0740 -0.0257
    1DIPC   C4A19532  12.478   6.695   4.016 -0.3271 -0.0016 -0.0800
    1DIPC   C1B19533  11.385   6.808   4.236  0.1245  0.2247  0.2250
    1DIPC   D2B19534  11.445   6.802   4.751 -0.0150 -0.0779  0.0211
    1DIPC   D3B19535  11.771   6.577   4.784  0.0603  0.2494  0.2615
    1DIPC   C4B19536  11.943   6.402   5.176 -0.0731  0.4040 -0.0665
    1DIPC   NC319537  27.665   5.789   2.780  0.4742  0.3973  0.1176
    1DIPC   PO419538  27.495   5.859   3.054  0.1076  0.1620  0.1160
    1DIPC   GL119539  27.493   6.070   3.459  0.2057 -0.0369 -0.0810
    1DIPC   GL219540  27.310   6.302   3.352 -0.1287  0.2333 -0.1644
    1DIPC   C1A19541  27.486   6.240   3.831 -0.0969 -0.1722  0.1001
    1DIPC   D2A19542  27.658   6.538   4.169  0.0623 -0.2134 -0.0149
    1DIPC   D3A19543  27.575   6.120   4.392  0.1463 -0.1856  0.1721
    1DIPC   C4A19544  27.267   6.170   4.827  0.2745  0.2867  0.1146
    1DIPC   C1B19545  27.191   6.657   3.219  0.1139  0.1052  0.3056
    1DIPC   D2B19546  27.160   7.071   3.382  0.1436 -0.1372  0.2890
    1DIPC   D3B19547  27.631   7.022   3.242 -0.2122 -0.0699 -0.0679
    1DIPC   C4B19548  27.994   7.254   3.403 -0.1747  0.1066 -0.3305
    1DIPC   NC319549   7.066  17.902   2.217  0.1230  0.0892  0.1691
    1DIPC   PO419550   6.831  17.941   2.567 -0.2809  0.2386  0.2225
    1DIPC   GL119551   6.635  18.264   2.868  0.0114 -0.1173  0.3003
    1DIPC   GL219552   6.864  18.481   2.980 -0.3321 -0.1565  0.0111
    1DIPC   C1A19553   6.453  18.317   3.276  0.1084 -0.1358 -0.0034
    1DIPC   D2A19554   6.509  18.212   3.733 -0.1549 -0.2072 -0.0624
    1DIPC   D3A19555   6.833  17.964   3.807 -0.1131  0.0651 -0.1421
    1DIPC   C4A19556   7.212  18.122   3.713  0.0710  0.1304  0.0727
    1DIPC   C1B19557   6.969  18.545   3.396 -0.0419 -0.0487  0.3620
    1DIPC   D2B19558   7.268  18.716   3.658 -0.3161  0.1055 -0.2759
    1DIPC   D3B19559   7.533  18.493   3.774  0.0396 -0.3963  0.2872
    1DIPC   C4B19560   8.005  18.757   3.823 -0.2097  0.0229 -0.3293
    1DIPC   NC319561   8.524  15.664   1.989 -0.4890 -0.1778  0.2846
    1DIPC   PO419562   8.964  15.910   1.990 -0.0689  0.3099  0.2964
    1DIPC   GL119563   8.899  15.852   2.431 -0.0004 -0.0843 -0.2478
    1DIPC   GL219564   9.103  16.107   2.652 -0.0280  0.1104 -0.2363
    1DIPC   C1A19565   8.847  15.496   2.786 -0.2050  0.2801  0.0682
    1DIPC   D2A19566   9.007  15.042   2.944  0.0287 -0.2569  0.0382
    1DIPC   D3A19567   9.140  15.016   3.342 -0.2597  0.1238 -0.2885
    1DIPC   C4A19568   8.848  14.679   3.479  0.2387 -0.1449  0.1598
    1DIPC   C1B19569   9.277  15.914   2.985 -0.4063 -0.0469 -0.1113
    1DIPC   D2B19570   9.365  15.831   3.450 -0.3548  0.1362 -0.2514
    1DIPC   D3B19571   9.388  15.906   3.930  0.3979  0.1468 -0.1302
    1DIPC   C4B19572   9.531  16.273   4.080 -0.0906  0.1728 -0.2119
    1DIPC   NC319573   5.257   7.279   2.861 -0.0666 -0.2070 -0.0461
    1DIPC   PO419574   5.198   7.393   3.323 -0.0891 -0.0280  0.1926
    1DIPC   GL119575   5.045   7.332   3.807  0.0638 -0.0365 -0.0765
    1DIPC   GL219576   4.785   7.493   3.858  0.1188 -0.0059 -0.0717
    1DIPC   C1A19577   5.193   7.232   4.211 -0.1556 -0.0515  0.2860
    1DIPC   D2A19578   5.043   7.249   4.655 -0.0632  0.2224  0.0029
    1DIPC   D3A19579   5.252   7.449   5.047 -0.2386 -0.4066  0.1633
    1DIPC   C4A19580   5.454   7.164   5.394  0.2375  0.3263 -0.2508
    1DIPC   C1B19581   4.734   7.633   4.269  0.2204 -0.0797 -0.3238
    1DIPC   D2B19582   4.863   7.712   4.616 -0.0931  0.1503  0.0035
    1DIPC   D3B19583   5.323   7.630   4.529  0.0064  0.2146 -0.0024
    1DIPC   C4B19584   5.553   7.350   4.673 -0.0695  0.0354 -0.1020
    1DIPC   NC319585  25.288  16.622   2.054 -0.0288 -0.2467  0.0556
    1DIPC   PO419586  25.613  16.783   2.255 -0.2623  0.1670 -0.0393
    1DIPC   GL119587  25.602  16.374   2.502  0.3329  0.0119 -0.2809
    1DIPC   GL219588  25.221  16.363   2.465  0.1110  0.2394 -0.1172
    1DIPC   C1A19589  25.690  16.240   2.869  0.0710  0.3617  0.1217
    1DIPC   D2A19590  25.636  16.308   3.219  0.1409  0.2021  0.0254
    1DIPC   D3A19591  25.825  16.088   3.504  0.0491 -0.0516  0.0086
    1DIPC   C4A19592  25.823  16.061   3.880 -0.1675 -0.0025  0.1667
    1DIPC   C1B19593  25.245  16.626   2.896 -0.0276  0.1384 -0.0893
    1DIPC   D2B19594  25.407  17.058   2.949  0.0487 -0.1051 -0.0959
    1DIPC   D3B19595  25.725  16.775   2.839 -0.0377 -0.0950 -0.2713
    1DIPC   C4B19596  26.001  16.685   3.127  0.0412 -0.3328  0.0849
    1DIPC   NC319597  26.361  22.977   2.925  0.2526 -0.1875 -0.2153
    1DIPC   PO419598  26.540  22.607   2.753 -0.0048 -0.2112 -0.2157
    1DIPC   GL119599  26.416  22.485   3.115 -0.1683  0.0535 -0.1794
    1DIPC   GL219600  26.148  22.508   3.155 -0.2613 -0.0965 -0.1609
    1DIPC   C1A19601  26.359  22.046   3.321 -0.0949  0.2982 -0.0508
    1DIPC   D2A19602  26.495  21.837   3.656  0.2034  0.1836 -0.0545
    1DIPC   D3A19603  26.502  21.934   4.032  0.2419 -0.1297  0.2070
    1DIPC   C4A19604  26.729  22.092   4.344  0.0235  0.0049  0.0429
    1DIPC   C1B19605  26.194  22.456   3.601 -0.1828  0.2621 -0.0555
    1DIPC   D2B19606  26.184  22.246   3.875 -0.2681 -0.0056  0.2399
    1DIPC   D3B19607  26.628  22.410   3.932 -0.0853 -0.1548  0.3207
    1DIPC   C4B19608  26.786  22.395   3.446  0.0155  0.0242 -0.0869
    1DIPC   NC319609  24.277   3.634   3.207 -0.1078  0.4203 -0.0360
    1DIPC   PO419610  24.082   4.137   3.221 -0.1825  0.3553 -0.3219
    1DIPC   GL119611  23.976   4.248   3.585 -0.2058 -0.2916 -0.0156
    1DIPC   GL219612  23.693   4.434   3.638 -0.1190  0.0905  0.0195
    1DIPC   C1A19613  24.015   4.254   4.037  0.3304  0.1021 -0.1392
    1DIPC   D2A19614  24.178   4.363   4.470 -0.0115 -0.1929  0.3302
    1DIPC   D3A19615  24.190   4.794   4.712  0.0181 -0.0425 -0.0340
    1DIPC   C4A19616  24.385   5.190   4.642  0.0282  0.2765  0.0978
    1DIPC   C1B19617  23.599   4.642   3.914 -0.1189  0.0843  0.0127
    1DIPC   D2B19618  23.831   4.738   4.389  0.2855  0.2691 -0.1687
    1DIPC   D3B19619  24.104   5.146   4.231 -0.2957 -0.0840 -0.1923
    1DIPC   C4B19620  23.746   5.238   3.994  0.1488  0.1315  0.3274
    1DIPC   NC319621  20.914  27.692   2.924  0.3160  0.2063 -0.0065
    1DIPC   PO419622  21.059  27.400   3.281  0.1107  0.0214 -0.0390
    1DIPC   GL119623  20.906  27.494   3.625 -0.0095 -0.0996  0.1017
    1DIPC   GL219624  20.929  27.819   3.679 -0.0539 -0.3510  0.0956
    1DIPC   C1A19625  21.143  27.309   3.998  0.1214 -0.1939 -0.1012
    1DIPC   D2A19626  21.128  27.269   4.463 -0.3014  0.1756  0.1759
    1DIPC   D3A19627  21.526  27.271   4.448  0.1047  0.3873 -0.0131
    1DIPC   C4A19628  21.712  27.207   4.016  0.1624  0.1597 -0.0946
    1DIPC   C1B19629  20.779  27.768   4.061  0.1934 -0.2809  0.0809
    1DIPC   D2B19630  20.702  27.493   4.413 -0.0369 -0.0506  0.4254
    1DIPC   D3B19631  20.778  27.450   4.833  0.1877  0.0676  0.2564
    1DIPC   C4B19632  20.916  27.341   5.233 -0.0088 -0.1855 -0.2587
    1DIPC   NC319633  26.829  17.702   2.655 -0.1718 -0.1648  0.0816
    1DIPC   PO419634  27.097  17.947   2.401 -0.3818  0.3677  0.0390
    1DIPC   GL119635  27.035  18.088   2.853 -0.5046 -0.2575 -0.0967
    1DIPC   GL219636  27.014  17.948   3.120 -0.1205 -0.0312 -0.3836
    1DIPC   C1A19637  26.933  18.385   3.313 -0.0457 -0.2643 -0.0010
    1DIPC   D2A19638  27.022  18.424   3.785 -0.4819  0.0361  0.2817
    1DIPC   D3A19639  27.013  17.959   3.789 -0.3481 -0.3837 -0.1744
    1DIPC   C4A19640  27.157  17.701   3.486  0.2767  0.0556  0.3254
    1DIPC   C1B19641  26.705  17.865   3.401 -0.0629  0.0484  0.0139
    1DIPC   D2B19642  26.528  17.751   3.828  0.0917 -0.0333  0.0553
    1DIPC   D3B19643  26.261  18.133   3.924 -0.0646  0.1112 -0.0544
    1DIPC   C4B19644  26.243  18.236   4.309 -0.0140  0.1353 -0.2124
    1DIPC   NC319645   5.616  11.845   2.823 -0.0556 -0.0486  0.0121
    1DIPC   PO419646   5.958  11.596   2.890 -0.1069  0.4559 -0.1225
    1DIPC   GL119647   5.755  11.511   3.303 -0.1972  0.1157 -0.4495
    1DIPC   GL219648   5.373  11.689   3.279 -0.1743  0.0685  0.2618
    1DIPC   C1A19649   5.482  11.441   3.724  0.0393  0.3405 -0.0937
    1DIPC   D2A19650   5.348  11.433   4.209  0.0040 -0.0103 -0.0773
    1DIPC   D3A19651   5.206  11.867   4.202  0.0590 -0.0031 -0.1134
    1DIPC   C4A19652   4.906  11.736   4.367 -0.1911 -0.4185  0.0235
    1DIPC   C1B19653   4.953  11.559   3.314 -0.2101 -0.1440 -0.4087
    1DIPC   D2B19654   4.594  11.505   3.319  0.1759 -0.2170 -0.5339
    1DIPC   D3B19655   4.710  11.238   3.604  0.1982  0.1945 -0.0057
    1DIPC   C4B19656   4.646  10.843   3.760  0.1949  0.0387 -0.1495
    1DIPC   NC319657   0.922   7.550   3.105 -0.2461  0.2110  0.2280
    1DIPC   PO419658   1.030   7.127   3.144  0.1526 -0.0896 -0.1215
    1DIPC   GL119659   1.210   7.043   3.444  0.0984  0.0599 -0.0627
    1DIPC   GL219660   0.938   6.932   3.699 -0.0071  0.0329 -0.0639
    1DIPC   C1A19661   1.305   7.418   3.727 -0.0414 -0.1366 -0.1233
    1DIPC   D2A19662   1.251   7.784   3.473 -0.3183  0.0386  0.2000
    1DIPC   D3A19663   1.575   7.878   3.732  0.0798 -0.3055  0.0361
    1DIPC   C4A19664   1.406   7.863   4.202  0.0191 -0.1205  0.0943
    1DIPC   C1B19665   1.068   6.652   3.928  0.0724  0.0178  0.1407
    1DIPC   D2B19666   1.017   6.258   4.174  0.3507 -0.0604 -0.0452
    1DIPC   D3B19667   1.257   6.123   4.425  0.1460  0.1048  0.0929
    1DIPC   C4B19668   1.231   5.962   4.828 -0.2186  0.0642  0.0500
    1DIPC   NC319669  28.646   8.832   2.187 -0.0787 -0.0797 -0.1896
    1DIPC   PO419670  28.477   9.099   2.476  0.2005 -0.2527  0.0477
    1DIPC   GL119671  28.394   9.101   2.961 -0.0007  0.2712  0.0664
    1DIPC   GL219672  28.039   8.793   3.014  0.1448 -0.2354  0.0516
    1DIPC   C1A19673  28.333   9.512   3.162  0.1546  0.0161 -0.2515
    1DIPC   D2A19674  28.200   9.757   3.525 -0.1253  0.2503  0.0491
    1DIPC   D3A19675  28.339  10.036   3.749  0.1270 -0.0133  0.2042
    1DIPC   C4A19676  28.598   9.897   4.005 -0.0638 -0.1385 -0.1589
    1DIPC   C1B19677  28.101   8.643   3.454  0.4157 -0.1905  0.1887
    1DIPC   D2B19678  28.431   8.603   3.635 -0.0293  0.3433  0.0160
    1DIPC   D3B19679  28.447   8.913   4.002 -0.1383 -0.0424 -0.1627
    1DIPC   C4B19680  28.814   8.828   4.308  0.0207 -0.1293  0.2493
    1DIPC   NC319681  15.773   4.011   2.906  0.0483 -0.1226  0.1424
    1DIPC   PO419682  15.524   4.117   3.005 -0.0674  0.0933  0.1198
    1DIPC   GL119683  15.625   4.357   3.322 -0.0591 -0.1738  0.0083
    1DIPC   GL219684  15.604   4.668   3.313  0.1969  0.4011 -0.2447
    1DIPC   C1A19685  15.601   4.106   3.680  0.0898 -0.1134 -0.1697
    1DIPC   D2A19686  15.808   4.374   4.029  0.2402 -0.1043 -0.2018
    1DIPC   D3A19687  15.764   4.243   4.423 -0.4426 -0.0073 -0.1582
    1DIPC   C4A19688  16.051   4.037   4.568 -0.0004  0.2349 -0.0129
    1DIPC   C1B19689  15.752   4.768   3.657 -0.0039 -0.0497 -0.1236
    1DIPC   D2B19690  15.951   4.918   4.059 -0.3023 -0.0481  0.1001
    1DIPC   D3B19691  15.748   4.882   4.396 -0.0904 -0.0988 -0.1241
    1DIPC   C4B19692  15.399   4.602   4.317  0.1521 -0.0705 -0.4113
    1DIPC   NC319693  20.696  21.862   3.276  0.1703  0.1407 -0.1735
    1DIPC   PO419694  20.265  21.920   3.216  0.0363 -0.0142  0.0115
    1DIPC   GL119695  20.058  21.898   3.708 -0.1579  0.0295  0.0558
    1DIPC   GL219696  20.132  22.235   3.820 -0.0060 -0.1340  0.1444
    1DIPC   C1A19697  20.195  21.798   4.173  0.1012  0.2903  0.1997
    1DIPC   D2A19698  20.359  21.938   4.638  0.2779  0.0853 -0.1219
    1DIPC   D3A19699  20.360  21.798   5.043 -0.1531  0.3103  0.0924
    1DIPC   C4A19700  20.012  21.905   5.410 -0.2735  0.0611 -0.0330
    1DIPC   C1B19701  20.450  22.251   4.186  0.1548  0.1122 -0.4916
    1DIPC   D2B19702  20.638  22.377   4.636  0.1318 -0.1194  0.2164
    1DIPC   D3B19703  20.737  22.540   5.071 -0.1199 -0.2356  0.0647
    1DIPC   C4B19704  20.634  22.102   5.283  0.1096  0.1295  0.1959
    1DIPC   NC319705  17.038  26.227   2.888 -0.0125  0.4204  0.1584
    1DIPC   PO419706  16.615  26.193   3.159 -0.1681  0.1500  0.0359
    1DIPC   GL119707  16.680  26.266   3.671  0.3845 -0.2327  0.1202
    1DIPC   GL219708  16.805  26.042   3.851  0.1055  0.0245  0.0937
    1DIPC   C1A19709  16.432  26.426   3.979  0.2210 -0.1680 -0.1430
    1DIPC   D2A19710  16.185  26.408   4.417  0.0137  0.0746 -0.1101
    1DIPC   D3A19711  16.125  26.550   4.790  0.0327 -0.0502 -0.0186
    1DIPC   C4A19712  16.463  26.465   4.902 -0.0293 -0.1447  0.1668
    1DIPC   C1B19713  16.623  25.748   4.051  0.3476  0.1140 -0.3268
    1DIPC   D2B19714  16.351  25.492   4.331  0.1511 -0.4031 -0.0707
    1DIPC   D3B19715  16.262  25.875   4.441 -0.0093  0.0340 -0.1737
    1DIPC   C4B19716  16.705  26.196   4.334 -0.0487  0.0297 -0.2174
    1DIPC   NC319717   7.686  15.624   2.202  0.4675 -0.2428  0.2086
    1DIPC   PO419718   7.330  15.491   2.240 -0.0568  0.4340 -0.1542
    1DIPC   GL119719   7.180  15.334   2.752 -0.0466  0.1241  0.0848
    1DIPC   GL219720   6.879  15.196   2.897  0.2471 -0.0678  0.0481
    1DIPC   C1A19721   7.244  15.334   3.185  0.3450  0.0403 -0.1131
    1DIPC   D2A19722   7.207  15.420   3.577  0.1335 -0.0679 -0.0338
    1DIPC   D3A19723   6.904  15.759   3.498  0.0845 -0.1441 -0.0873
    1DIPC   C4A19724   6.773  15.996   3.820  0.0485  0.1066  0.2607
    1DIPC   C1B19725   6.943  14.943   3.296  0.1472 -0.4362 -0.1603
    1DIPC   D2B19726   6.828  15.080   3.724 -0.0266 -0.1041  0.1787
    1DIPC   D3B19727   6.888  15.513   3.975  0.0835  0.0895 -0.1893
    1DIPC   C4B19728   7.276  15.742   3.990  0.1916 -0.2173  0.0639
    1DIPC   NC319729   7.400  18.726   2.231  0.0933 -0.0973  0.1187
    1DIPC   PO419730   7.563  19.141   2.226  0.1029  0.0003 -0.0716
    1DIPC   GL119731   7.545  19.020   2.693 -0.0788  0.0959  0.0916
    1DIPC   GL219732   7.315  18.693   2.759 -0.2332  0.4983  0.0910
    1DIPC   C1A19733   7.632  19.142   3.121 -0.1001 -0.0022  0.0183
    1DIPC   D2A19734   7.651  19.031   3.581  0.0168 -0.0984  0.2373
    1DIPC   D3A19735   7.459  19.062   3.981 -0.1338 -0.1599  0.3803
    1DIPC   C4A19736   7.466  18.731   4.340 -0.2708 -0.3056 -0.2966
    1DIPC   C1B19737   7.227  18.927   3.166 -0.3908  0.1035  0.1729
    1DIPC   D2B19738   7.268  19.328   3.381  0.0247  0.1555 -0.1176
    1DIPC   D3B19739   7.532  19.607   3.347  0.0723 -0.0342 -0.1766
    1DIPC   C4B19740   7.582  19.594   2.944  0.2949 -0.1015 -0.1127
    1DIPC   NC319741  21.995   6.808   3.006  0.3699  0.0395 -0.2185
    1DIPC   PO419742  22.358   6.470   2.967  0.4521 -0.3404 -0.0579
    1DIPC   GL119743  22.521   6.488   3.367 -0.1951  0.0261  0.2200
    1DIPC   GL219744  22.542   6.841   3.449 -0.0168 -0.1335 -0.0173
    1DIPC   C1A19745  22.680   6.497   3.802 -0.1257 -0.1907 -0.1950
    1DIPC   D2A19746  22.862   6.733   4.108 -0.2863  0.0418  0.0424
    1DIPC   D3A19747  22.577   6.533   4.328  0.0689 -0.3163  0.2101
    1DIPC   C4A19748  22.451   6.781   4.619  0.1860 -0.2006 -0.2456
    1DIPC   C1B19749  22.260   6.844   3.729 -0.2443  0.0788  0.0969
    1DIPC   D2B19750  22.247   6.929   4.199  0.2015  0.1919  0.0562
    1DIPC   D3B19751  22.240   7.256   4.300 -0.0872  0.2669 -0.0874
    1DIPC   C4B19752  22.418   7.575   4.410 -0.0088  0.0126 -0.4061
    1DIPC   NC319753  25.507  20.123   2.709  0.0614  0.1522 -0.2257
    1DIPC   PO419754  25.728  20.256   3.060 -0.1294  0.1692 -0.0312
    1DIPC   GL119755  25.671  20.394   3.466  0.2546 -0.2221  0.0090
    1DIPC   GL219756  25.923  20.322   3.639  0.0854 -0.0640  0.2480
    1DIPC   C1A19757  25.498  20.747   3.647 -0.0827  0.0384  0.2759
    1DIPC   D2A19758  25.454  20.924   4.160  0.0812 -0.1867 -0.0246
    1DIPC   D3A19759  25.588  20.962   4.588  0.2977 -0.2478  0.1192
    1DIPC   C4A19760  25.242  20.821   4.827  0.0297  0.0927  0.1272
    1DIPC   C1B19761  26.143  20.285   3.986 -0.1286  0.0379 -0.2464
    1DIPC   D2B19762  26.185  20.140   4.359 -0.0148  0.0461  0.0712
    1DIPC   D3B19763  25.908  20.248   4.764 -0.1614 -0.1978  0.0735
    1DIPC   C4B19764  25.577  20.467   4.832  0.0233  0.1919  0.0896
    1DIPC   NC319765  22.077  23.314   3.145  0.1628 -0.3528 -0.0930
    1DIPC   PO419766  22.214  23.626   3.357 -0.0128 -0.2497 -0.1894
    1DIPC   GL119767  22.608  23.581   3.569  0.1555 -0.1682  0.3318
    1DIPC   GL219768  22.569  23.846   3.601  0.1725 -0.1565 -0.1296
    1DIPC   C1A19769  22.899  23.698   3.921 -0.4519  0.0096 -0.0066
    1DIPC   D2A19770  22.892  23.770   4.384  0.1368  0.0289  0.0597
    1DIPC   D3A19771  22.497  23.959   4.454 -0.0483 -0.0084  0.3392
    1DIPC   C4A19772  22.060  23.854   4.389  0.0231 -0.1700  0.0411
    1DIPC   C1B19773  22.387  23.656   3.982 -0.1749  0.1681  0.0656
    1DIPC   D2B19774  21.951  23.715   3.835  0.2184  0.1123 -0.1302
    1DIPC   D3B19775  22.055  23.345   3.774 -0.0897  0.0908 -0.1762
    1DIPC   C4B19776  21.796  23.001   4.061 -0.2153  0.1121 -0.1601
    1DIPC   NC319777   6.985  15.106   2.371  0.1342 -0.1353  0.1858
    1DIPC   PO419778   6.694  14.799   2.551  0.0520  0.0170  0.2620
    1DIPC   GL119779   6.549  14.753   2.988 -0.1491  0.1507 -0.1127
    1DIPC   GL219780   6.176  14.636   3.096 -0.1071  0.1828  0.2051
    1DIPC   C1A19781   6.516  15.154   3.254  0.1726  0.1900  0.1609
    1DIPC   D2A19782   6.530  15.418   3.537 -0.3720  0.0012 -0.4172
    1DIPC   D3A19783   6.354  15.673   4.007 -0.3614  0.0095 -0.1291
    1DIPC   C4A19784   6.514  15.342   4.335  0.1263  0.2159 -0.2682
    1DIPC   C1B19785   6.085  14.725   3.533  0.0523 -0.2430 -0.0354
    1DIPC   D2B19786   6.003  14.591   3.948  0.0617 -0.0299  0.1726
    1DIPC   D3B19787   6.214  14.281   3.682 -0.0296  0.3271  0.3456
    1DIPC   C4B19788   5.958  14.183   3.284  0.5658 -0.1410  0.0419
    1DIPC   NC319789   3.364  21.338   1.730  0.0175 -0.1401 -0.0814
    1DIPC   PO419790   3.135  21.665   1.786  0.0283 -0.2375 -0.2908
    1DIPC   GL119791   3.060  21.677   2.279 -0.1581 -0.0305  0.0479
    1DIPC   GL219792   2.833  21.711   2.430 -0.2452  0.1549 -0.0569
    1DIPC   C1A19793   3.372  21.779   2.589  0.0596  0.2122  0.1668
    1DIPC   D2A19794   3.706  21.993   2.652 -0.1273  0.0790  0.0709
    1DIPC   D3A19795   4.042  22.260   2.726 -0.0761  0.1515 -0.1523
    1DIPC   C4A19796   4.451  22.175   2.727  0.0519 -0.0612  0.2615
    1DIPC   C1B19797   2.953  21.693   2.865  0.0265  0.0677  0.0079
    1DIPC   D2B19798   3.233  21.530   3.181  0.0139  0.2163 -0.0049
    1DIPC   D3B19799   3.554  21.663   3.127 -0.3759 -0.2892  0.1791
    1DIPC   C4B19800   3.749  21.488   2.774  0.0328 -0.1318  0.0609
    1DIPC   NC319801   4.527   2.087   3.249 -0.2017 -0.1680  0.0493
    1DIPC   PO419802   4.232   1.720   3.204 -0.3818  0.0190  0.4474
    1DIPC   GL119803   4.164   1.676   3.668  0.3029 -0.1552  0.1395
    1DIPC   GL219804   3.806   1.521   3.851  0.0386 -0.0092  0.1359
    1DIPC   C1A19805   4.259   1.581   4.124  0.0325  0.0672 -0.1192
    1DIPC   D2A19806   4.251   1.658   4.479 -0.0726 -0.1211  0.1118
    1DIPC   D3A19807   4.036   1.317   4.613  0.0994  0.1778 -0.0513
    1DIPC   C4A19808   3.856   1.353   5.021 -0.0217 -0.0798 -0.1565
    1DIPC   C1B19809   3.773   1.580   4.304 -0.0604 -0.1304 -0.0726
    1DIPC   D2B19810   3.522   1.635   4.698  0.0429  0.0388 -0.2382
    1DIPC   D3B19811   3.522   1.797   5.078 -0.0465 -0.2089  0.1339
    1DIPC   C4B19812   3.664   2.235   5.058 -0.0292 -0.0593  0.2933
    1DIPC   NC319813   5.976  17.230   2.715  0.2231 -0.0715  0.2137
    1DIPC   PO419814   6.256  17.031   2.591 -0.1020  0.2592  0.3786
    1DIPC   GL119815   6.317  16.962   3.035 -0.0525  0.1566  0.4256
    1DIPC   GL219816   6.561  17.177   2.981  0.2538  0.2552 -0.0857
    1DIPC   C1A19817   6.304  16.763   3.453  0.1209  0.1087 -0.0716
    1DIPC   D2A19818   6.475  17.013   3.745  0.1601  0.0070  0.1114
    1DIPC   D3A19819   6.309  16.924   4.145 -0.3793 -0.0653 -0.1195
    1DIPC   C4A19820   6.369  16.612   4.463  0.1209  0.1470  0.1407
    1DIPC   C1B19821   6.592  17.288   3.393 -0.2590 -0.0315 -0.0298
    1DIPC   D2B19822   6.530  17.555   3.701 -0.0720  0.2421  0.1479
    1DIPC   D3B19823   6.566  17.737   3.221 -0.3353 -0.3399  0.0611
    1DIPC   C4B19824   6.851  17.995   3.243 -0.1884 -0.3952 -0.0983
    1DIPC   NC319825   9.644   0.613   3.162 -0.1599 -0.2156 -0.1220
    1DIPC   PO419826   9.660   0.183   3.235  0.0638  0.2410  0.0386
    1DIPC   GL119827   9.596   0.412   3.620 -0.0233  0.3289 -0.1025
    1DIPC   GL219828   9.328   0.370   3.790 -0.0602 -0.1297  0.1484
    1DIPC   C1A19829   9.970   0.554   3.828 -0.0812  0.0135 -0.3146
    1DIPC   D2A19830   9.765   0.560   4.187 -0.0150  0.0431 -0.1132
    1DIPC   D3A19831  10.055   0.437   4.350  0.1531 -0.0893  0.2398
    1DIPC   C4A19832   9.895   0.117   4.574  0.1038  0.3819  0.3997
    1DIPC   C1B19833   9.151   0.439   4.229 -0.0215 -0.1459 -0.2279
    1DIPC   D2B19834   9.041   0.769   4.536 -0.1150  0.4413  0.0803
    1DIPC   D3B19835   9.042   0.758   4.962  0.0630 -0.0274  0.2489
    1DIPC   C4B19836   8.767   0.450   5.059  0.0359 -0.0180  0.0609
    1DIPC   NC319837   0.334  14.679   2.076  0.0244 -0.2791  0.0803
    1DIPC   PO419838   0.106  14.579   2.443 -0.2616  0.2274  0.1497
    1DIPC   GL119839   0.102  14.834   2.772  0.1916 -0.0475 -0.0909
    1DIPC   GL219840   0.152  15.172   2.736  0.5380  0.2246  0.1058
    1DIPC   C1A19841   0.051  14.892   3.109  0.0384 -0.1654  0.1651
    1DIPC   D2A19842   0.329  14.799   3.353  0.2083  0.1611 -0.2340
    1DIPC   D3A19843   0.154  15.038   3.597  0.0315 -0.0209 -0.2795
    1DIPC   C4A19844  -0.091  15.457   3.484 -0.1181 -0.2924 -0.1189
    1DIPC   C1B19845   0.253  15.422   3.129  0.1046  0.2702  0.0682
    1DIPC   D2B19846   0.561  15.386   3.550  0.1395  0.2981  0.1028
    1DIPC   D3B19847   0.370  15.561   3.746 -0.0876 -0.1118 -0.0282
    1DIPC   C4B19848   0.583  15.448   4.146  0.1000 -0.0667 -0.0008
    1DIPC   NC319849  19.973  27.732   3.464 -0.2066  0.1919 -0.2818
    1DIPC   PO419850  20.343  27.936   3.491 -0.0938 -0.1508 -0.0975
    1DIPC   GL119851  20.271  27.872   3.886  0.3280  0.0387 -0.3550
    1DIPC   GL219852  20.419  28.069   4.033  0.3381  0.2541  0.1013
    1DIPC   C1A19853  20.239  27.670   4.271 -0.1271  0.2653  0.0199
    1DIPC   D2A19854  20.263  27.572   4.676  0.0038 -0.0877  0.1879
    1DIPC   D3A19855  19.993  27.778   5.027  0.0779 -0.2981  0.1353
    1DIPC   C4A19856  19.601  27.912   4.837 -0.3059  0.1801 -0.3098
    1DIPC   C1B19857  20.573  28.019   4.438  0.0080 -0.1454 -0.1829
    1DIPC   D2B19858  20.517  28.018   4.794  0.0762  0.2428 -0.1741
    1DIPC   D3B19859  20.463  27.732   5.136 -0.4841 -0.1258 -0.1651
    1DIPC   C4B19860  20.222  27.796   5.512 -0.1483 -0.0228 -0.0308
    1DIPC   NC319861  10.268   6.557   3.210 -0.1669 -0.1310  0.1898
    1DIPC   PO419862   9.922   6.604   3.527 -0.2221 -0.0538  0.2200
    1DIPC   GL119863   9.969   6.569   3.922  0.1201 -0.0083 -0.1849
    1DIPC   GL219864  10.069   6.861   4.162  0.0225  0.0099 -0.4600
    1DIPC   C1A19865   9.895   6.406   4.353 -0.0388 -0.1337 -0.4999
    1DIPC   D2A19866   9.544   6.332   4.726 -0.2935 -0.0891 -0.0234
    1DIPC   D3A19867   9.339   5.924   4.784  0.1150  0.4458  0.1276
    1DIPC   C4A19868   9.431   5.601   5.110 -0.1306 -0.1457 -0.1662
    1DIPC   C1B19869   9.846   6.872   4.552 -0.1532  0.2423 -0.0803
    1DIPC   D2B19870   9.752   6.964   4.976 -0.1767  0.1229 -0.2477
    1DIPC   D3B19871  10.112   6.792   5.137 -0.1349 -0.1041 -0.0422
    1DIPC   C4B19872  10.489   7.177   5.321  0.2118  0.5336 -0.4087
    1DIPC   NC319873   3.751   8.291   3.148 -0.1602  0.0198  0.0366
    1DIPC   PO419874   3.265   8.244   3.248  0.0442 -0.2929 -0.0609
    1DIPC   GL119875   3.318   8.393   3.667 -0.0535  0.1212  0.1670
    1DIPC   GL219876   3.647   8.351   3.609  0.1018  0.2676 -0.1147
    1DIPC   C1A19877   3.545   8.556   4.064 -0.1880 -0.0919  0.0747
    1DIPC   D2A19878   3.762   8.455   4.440  0.1311  0.2856 -0.1390
    1DIPC   D3A19879   3.585   8.255   4.828  0.0693 -0.0404  0.1562
    1DIPC   C4A19880   3.368   7.900   4.766 -0.1563  0.3092 -0.0318
    1DIPC   C1B19881   3.551   8.002   3.951 -0.3658  0.2054  0.1382
    1DIPC   D2B19882   3.407   8.106   4.341  0.0447 -0.2549  0.1934
    1DIPC   D3B19883   3.276   8.436   4.443 -0.0724  0.0273 -0.2728
    1DIPC   C4B19884   2.897   8.580   4.405  0.0950  0.1894  0.0372
    1DIPC   NC319885  11.695  23.188   2.425  0.1577  0.4275  0.1523
    1DIPC   PO419886  11.291  23.273   2.546 -0.0336  0.0738 -0.0662
    1DIPC   GL119887  11.119  23.103   2.822 -0.3054  0.2093 -0.0405
    1DIPC   GL219888  11.029  22.928   2.915  0.1449  0.0007  0.1024
    1DIPC   C1A19889  11.234  23.256   3.291  0.0986  0.2575 -0.3349
    1DIPC   D2A19890  11.521  23.352   3.683 -0.0361  0.1104  0.0716
    1DIPC   D3A19891  11.515  23.540   4.074 -0.2359  0.2756 -0.0394
    1DIPC   C4A19892  11.275  23.791   4.167 -0.2694 -0.1561  0.3272
    1DIPC   C1B19893  11.283  22.749   3.247  0.0623 -0.0054 -0.0476
    1DIPC   D2B19894  11.554  22.634   3.595  0.0971 -0.0086 -0.2163
    1DIPC   D3B19895  11.423  22.286   3.695 -0.0333 -0.0887 -0.2455
    1DIPC   C4B19896  11.543  22.042   4.034 -0.1685  0.0360  0.1514
    1DIPC   NC319897   5.940  27.580   2.927 -0.1378 -0.0906 -0.3084
    1DIPC   PO419898   5.905  27.177   3.100  0.3398 -0.3975 -0.0630
    1DIPC   GL119899   5.823  27.166   3.557 -0.1271 -0.2817  0.0199
    1DIPC   GL219900   5.573  27.464   3.566  0.1108 -0.3977 -0.2832
    1DIPC   C1A19901   5.656  27.223   3.992  0.2045 -0.2255 -0.0373
    1DIPC   D2A19902   5.526  27.450   4.418 -0.0719 -0.0654 -0.1067
    1DIPC   D3A19903   5.412  27.915   4.470 -0.1770  0.2415  0.1329
    1DIPC   C4A19904   5.227  28.142   4.169 -0.3804  0.1104  0.5288
    1DIPC   C1B19905   5.524  27.678   3.999 -0.3755 -0.1599  0.0287
    1DIPC   D2B19906   5.098  27.619   4.270 -0.1633  0.1777  0.0511
    1DIPC   D3B19907   5.127  27.531   4.702 -0.0773  0.0827  0.1918
    1DIPC   C4B19908   5.501  27.600   4.888 -0.0699  0.0207  0.0712
    1DIPC   NC319909  19.065   5.512   2.796  0.1408 -0.0174  0.1066
    1DIPC   PO419910  19.091   5.167   3.205 -0.0823 -0.1289 -0.1683
    1DIPC   GL119911  18.626   5.076   3.346  0.0193 -0.0459 -0.0140
    1DIPC   GL219912  18.371   5.258   3.274  0.0160  0.3598 -0.3963
    1DIPC   C1A19913  18.422   5.136   3.764  0.0097  0.0665 -0.1491
    1DIPC   D2A19914  18.353   5.012   4.207  0.2448  0.2355  0.2135
    1DIPC   D3A19915  18.646   4.683   4.281  0.3337  0.0492  0.0181
    1DIPC   C4A19916  18.699   4.487   4.020  0.3018  0.1968  0.0740
    1DIPC   C1B19917  18.008   5.027   3.490  0.0548 -0.1100 -0.2183
    1DIPC   D2B19918  18.033   4.809   3.909 -0.1763  0.0065 -0.0335
    1DIPC   D3B19919  18.401   4.638   3.610  0.4379 -0.0377 -0.0133
    1DIPC   C4B19920  18.511   4.153   3.662 -0.1501 -0.0488  0.3759
    1DIPC   NC319921   1.509   3.590   3.001 -0.0743 -0.1983  0.0112
    1DIPC   PO419922   1.109   3.564   3.176 -0.3624 -0.1970  0.2703
    1DIPC   GL119923   1.111   3.526   3.550 -0.1846  0.1086  0.0163
    1DIPC   GL219924   0.867   3.387   3.652  0.1749 -0.3053 -0.0180
    1DIPC   C1A19925   1.294   3.427   3.938 -0.0316  0.3212 -0.0934
    1DIPC   D2A19926   1.065   3.352   4.357  0.2191 -0.0656  0.2221
    1DIPC   D3A19927   1.347   3.809   4.359  0.0311  0.0259  0.2680
    1DIPC   C4A19928   1.139   4.274   4.535  0.3379 -0.2881  0.1918
    1DIPC   C1B19929   0.773   3.604   3.948  0.0974  0.0069  0.1797
    1DIPC   D2B19930   0.897   3.969   4.228 -0.1281 -0.1821  0.0887
    1DIPC   D3B19931   0.596   4.015   4.629 -0.2111  0.0583 -0.0908
    1DIPC   C4B19932   0.087   3.914   4.698  0.0770 -0.1608  0.0078
    1DIPC   NC319933   5.147   3.577   3.322 -0.2192 -0.1241  0.1428
    1DIPC   PO419934   4.791   3.926   3.557  0.1320 -0.1057  0.2062
    1DIPC   GL119935   5.083   3.790   3.862 -0.2365 -0.0700  0.0810
    1DIPC   GL219936   4.914   3.651   4.127  0.0357  0.1589 -0.3182
    1DIPC   C1A19937   5.181   4.051   4.249 -0.2542  0.1281  0.0222
    1DIPC   D2A19938   5.167   4.096   4.625 -0.0924  0.1364 -0.1568
    1DIPC   D3A19939   5.174   4.209   5.018 -0.0202  0.0815  0.3006
    1DIPC   C4A19940   5.046   4.664   5.047  0.0778  0.1067 -0.1805
    1DIPC   C1B19941   4.768   3.817   4.531  0.0661 -0.1022  0.1221
    1DIPC   D2B19942   4.879   3.719   4.981 -0.2214 -0.0830  0.1442
    1DIPC   D3B19943   4.630   4.123   5.049  0.2216 -0.1395 -0.2156
    1DIPC   C4B19944   4.550   4.597   5.165  0.2812 -0.5121 -0.1302
    1DIPC   NC319945  15.270   1.003   3.644  0.0685 -0.5069 -0.0040
    1DIPC   PO419946  15.736   0.966   3.459  0.1335  0.0366 -0.1388
    1DIPC   GL119947  15.644   0.892   3.925 -0.0651  0.1007 -0.0547
    1DIPC   GL219948  15.741   0.587   3.922  0.0591  0.0630  0.0030
    1DIPC   C1A19949  15.909   0.998   4.220 -0.0007 -0.0363  0.2102
    1DIPC   D2A19950  15.691   1.001   4.573  0.2848 -0.0621 -0.0779
    1DIPC   D3A19951  15.943   1.146   4.963  0.0873 -0.2184  0.0840
    1DIPC   C4A19952  16.378   1.217   4.859  0.1826  0.1540 -0.0137
    1DIPC   C1B19953  16.183   0.358   4.075  0.2245 -0.0782  0.1382
    1DIPC   D2B19954  16.348   0.112   4.359  0.2316  0.2229  0.1068
    1DIPC   D3B19955  16.294   0.322   4.713 -0.1518  0.0944  0.0369
    1DIPC   C4B19956  16.088   0.667   4.956 -0.1738  0.3099  0.1759
    1DIPC   NC319957  14.336  27.038   2.979 -0.0929  0.0972 -0.2137
    1DIPC   PO419958  14.354  26.597   3.158  0.2726  0.3516 -0.2354
    1DIPC   GL119959  14.455  26.477   3.612  0.0669  0.1155 -0.1460
    1DIPC   GL219960  14.737  26.364   3.770  0.1671 -0.1172  0.0464
    1DIPC   C1A19961  14.434  26.319   4.096  0.1869 -0.2071 -0.2779
    1DIPC   D2A19962  14.521  26.128   4.468  0.2387  0.0111 -0.0343
    1DIPC   D3A19963  14.999  26.189   4.420 -0.3918 -0.1299  0.0121
    1DIPC   C4A19964  15.162  25.825   4.281  0.1252  0.2243 -0.2085
    1DIPC   C1B19965  14.931  26.661   4.089  0.1747 -0.1671  0.0140
    1DIPC   D2B19966  14.921  27.129   4.119  0.5362  0.0175  0.1206
    1DIPC   D3B19967  14.463  27.108   4.098  0.0919  0.1055  0.0907
    1DIPC   C4B19968  14.401  27.006   4.459  0.1943  0.1184  0.0652
    1DIPC   NC319969  28.518   4.292   2.998  0.2787  0.2093 -0.0715
    1DIPC   PO419970  28.811   4.605   3.219  0.0563 -0.0611  0.1133
    1DIPC   GL119971  28.572   4.587   3.614  0.0171 -0.0778  0.2499
    1DIPC   GL219972  28.281   4.877   3.668 -0.0886 -0.1594  0.0538
    1DIPC   C1A19973  28.668   4.700   3.963  0.1867 -0.1432 -0.1311
    1DIPC   D2A19974  28.518   4.889   4.370  0.1041  0.0275  0.1443
    1DIPC   D3A19975  28.780   4.632   4.787 -0.0241 -0.0509 -0.0040
    1DIPC   C4A19976  28.918   4.263   4.609 -0.1500  0.0639 -0.1383
    1DIPC   C1B19977  28.165   5.091   4.012 -0.0497  0.2435  0.0920
    1DIPC   D2B19978  27.846   5.217   4.052 -0.2679 -0.0419 -0.1278
    1DIPC   D3B19979  27.696   5.352   4.371  0.0345 -0.2548 -0.2454
    1DIPC   C4B19980  27.806   5.394   4.771 -0.2300  0.0026 -0.0012
    1DIPC   NC319981   6.572  19.033   2.431  0.1528 -0.0655 -0.1161
    1DIPC   PO419982   6.817  18.683   2.512 -0.0615 -0.0840 -0.1022
    1DIPC   GL119983   6.892  18.968   2.797  0.1520 -0.0982 -0.0639
    1DIPC   GL219984   6.707  19.201   2.837  0.3060  0.2788  0.0233
    1DIPC   C1A19985   6.797  19.089   3.325  0.0144  0.1637  0.1185
    1DIPC   D2A19986   6.572  19.153   3.698 -0.0866  0.0155 -0.0302
    1DIPC   D3A19987   6.935  19.045   3.926  0.1790 -0.1068 -0.1456
    1DIPC   C4A19988   6.988  18.771   4.143  0.2062 -0.2946 -0.0226
    1DIPC   C1B19989   6.288  19.285   3.132  0.3550  0.2866  0.1756
    1DIPC   D2B19990   6.082  19.221   3.493 -0.0154 -0.4456 -0.0167
    1DIPC   D3B19991   6.071  19.279   3.897  0.1656 -0.1948  0.0166
    1DIPC   C4B19992   6.285  19.114   4.147  0.1745 -0.1686  0.1557
    1DIPC   NC319993  28.927  16.772   2.384 -0.0719  0.3625 -0.0524
    1DIPC   PO419994  29.089  16.281   2.401  0.0461  0.3420  0.2284
    1DIPC   GL119995  29.123  16.384   2.809  0.1529  0.0851 -0.3073
    1DIPC   GL219996  29.504  16.443   2.915 -0.1226  0.0659 -0.1449
    1DIPC   C1A19997  28.969  16.552   3.205  0.2831  0.1081  0.0559
    1DIPC   D2A19998  28.988  16.591   3.616 -0.1807 -0.0305  0.2137
    1DIPC   D3A19999  29.182  16.746   4.067 -0.3006 -0.4412  0.2248
    1DIPC   C4A20000  29.343  17.205   4.066 -0.1307  0.0721 -0.3088
    1DIPC   C1B20001  29.783  16.403   3.313 -0.1558 -0.1896  0.1862
    1DIPC   D2B20002  29.989  16.179   3.602 -0.0328  0.0144  0.1211
    1DIPC   D3B20003  29.730  15.768   3.867 -0.0307 -0.0464  0.0449
    1DIPC   C4B20004  29.873  15.347   4.058 -0.1629 -0.0978  0.1686
    1DIPC   NC320005  26.148   6.201   3.217  0.1908  0.0837  0.1302
    1DIPC   PO420006  26.158   5.736   3.063  0.2127  0.3307  0.1172
    1DIPC   GL120007  26.333   5.729   3.485 -0.0393 -0.1634  0.0802
    1DIPC   GL220008  26.667   5.651   3.545 -0.1751  0.2542  0.1486
    1DIPC   C1A20009  26.312   5.603   3.904 -0.1300 -0.1664  0.2016
    1DIPC   D2A20010  26.319   5.528   4.314  0.1326  0.0576  0.1897
    1DIPC   D3A20011  26.049   5.517   4.697  0.1636 -0.0628 -0.1926
    1DIPC   C4A20012  25.668   5.672   4.636 -0.0903  0.3792 -0.2211
    1DIPC   C1B20013  26.742   5.768   4.074 -0.0983 -0.4277 -0.2913
    1DIPC   D2B20014  26.520   5.989   4.360  0.2289  0.0099  0.0310
    1DIPC   D3B20015  26.718   6.173   4.740  0.0483 -0.4698  0.0396
    1DIPC   C4B20016  27.048   6.446   4.424 -0.0338  0.1195  0.2423
    1DIPC   NC320017  29.023  12.777   2.074  0.0418 -0.1924  0.0672
    1DIPC   PO420018  28.795  13.134   2.308  0.2241 -0.1144  0.0759
    1DIPC   GL120019  29.061  12.934   2.603  0.0524  0.2880 -0.1244
    1DIPC   GL220020  29.031  12.681   2.635  0.2129  0.0386  0.3948
    1DIPC   C1A20021  29.132  13.069   2.971  0.0196 -0.5778 -0.1247
    1DIPC   D2A20022  28.951  13.188   3.432 -0.2857  0.0768 -0.1802
    1DIPC   D3A20023  28.704  13.447   3.754 -0.1940 -0.0684 -0.6300
    1DIPC   C4A20024  28.942  13.542   4.109  0.3623 -0.1837  0.1938
    1DIPC   C1B20025  29.342  12.522   2.923  0.1020 -0.0762  0.1612
    1DIPC   D2B20026  29.768  12.591   3.225 -0.2784  0.1293 -0.1491
    1DIPC   D3B20027  29.590  12.920   3.036 -0.0824 -0.2599  0.0804
    1DIPC   C4B20028  29.520  12.878   2.635  0.1300 -0.0345 -0.1901
    1DIPC   NC320029   8.422   9.830   3.403 -0.3948  0.0242 -0.0716
    1DIPC   PO420030   8.373  10.238   3.582 -0.0087 -0.1024 -0.1955
    1DIPC   GL120031   8.109  10.073   3.931  0.0363 -0.0152  0.1933
    1DIPC   GL220032   7.878  10.052   3.673 -0.1348  0.1715 -0.0960
    1DIPC   C1A20033   8.133  10.204   4.265 -0.0566  0.1757  0.1637
    1DIPC   D2A20034   8.015  10.369   4.634 -0.2304  0.0080  0.2309
    1DIPC   D3A20035   7.740  10.523   4.430 -0.1726  0.1130  0.0382
    1DIPC   C4A20036   7.751  10.736   4.006  0.0379  0.0247 -0.0653
    1DIPC   C1B20037   7.605  10.263   4.017  0.1112 -0.1228 -0.3219
    1DIPC   D2B20038   7.269  10.234   4.260 -0.0108 -0.1794  0.4333
    1DIPC   D3B20039   7.289  10.421   4.663 -0.1593  0.1128  0.1431
    1DIPC   C4B20040   7.160  10.137   4.942 -0.0770 -0.3539 -0.1862
    1DIPC   NC320041  16.555  24.722   3.102  0.0959  0.2535  0.1600
    1DIPC   PO420042  16.686  24.455   3.486  0.2982  0.0126  0.0327
    1DIPC   GL120043  16.771  24.565   3.887  0.1146 -0.1586  0.0391
    1DIPC   GL220044  16.889  24.332   4.031  0.0270 -0.0774  0.1312
    1DIPC   C1A20045  16.804  24.737   4.308  0.2924 -0.1050  0.1044
    1DIPC   D2A20046  16.804  24.792   4.726  0.1989  0.0730  0.0516
    1DIPC   D3A20047  16.745  25.231   4.619 -0.0842 -0.0289  0.0768
    1DIPC   C4A20048  16.846  25.316   4.188  0.4063  0.4403 -0.3253
    1DIPC   C1B20049  16.609  24.179   4.355 -0.1486 -0.1983 -0.0151
    1DIPC   D2B20050  16.584  23.941   4.641 -0.1921  0.0188 -0.1213
    1DIPC   D3B20051  16.692  24.259   4.849  0.0619 -0.2599  0.2645
    1DIPC   C4B20052  16.501  24.316   5.240  0.1962  0.0196 -0.0590
    1DIPC   NC320053   8.971  24.161   2.351  0.0592 -0.1308 -0.3513
    1DIPC   PO420054   8.942  23.798   2.450  0.0338 -0.1737  0.1356
    1DIPC   GL120055   9.093  23.664   2.781 -0.0073 -0.1569 -0.0446
    1DIPC   GL220056   8.902  23.807   2.998 -0.4758 -0.0700  0.2360
    1DIPC   C1A20057   9.324  23.618   3.112  0.1042 -0.1317 -0.1537
    1DIPC   D2A20058   9.415  23.613   3.582 -0.2137 -0.1382  0.0081
    1DIPC   D3A20059   9.046  23.730   3.693  0.0906  0.4393 -0.3922
    1DIPC   C4A20060   8.869  24.054   3.979  0.1881  0.3478 -0.0916
    1DIPC   C1B20061   8.697  23.703   3.317  0.0829 -0.0741  0.2160
    1DIPC   D2B20062   8.502  23.348   3.463 -0.0720  0.0852 -0.5045
    1DIPC   D3B20063   8.518  23.500   3.940  0.1254 -0.2058 -0.0807
    1DIPC   C4B20064   8.211  23.442   4.107  0.0484  0.1516  0.1051
    1DIPC   NC320065  20.197   7.634   2.148  0.2084 -0.0995  0.4863
    1DIPC   PO420066  20.157   7.525   2.598  0.0159  0.1625 -0.0235
    1DIPC   GL120067  20.060   7.604   2.991 -0.0353 -0.0117 -0.1087
    1DIPC   GL220068  20.383   7.564   3.172 -0.0559 -0.0743 -0.0530
    1DIPC   C1A20069  19.738   7.727   3.368 -0.0652  0.1238 -0.0187
    1DIPC   D2A20070  19.595   7.917   3.711  0.1432  0.4989  0.2221
    1DIPC   D3A20071  19.491   8.288   3.942 -0.0629  0.0465 -0.2283
    1DIPC   C4A20072  19.047   8.475   3.925  0.0593 -0.1869 -0.4310
    1DIPC   C1B20073  20.155   7.520   3.501  0.3652 -0.1490 -0.1215
    1DIPC   D2B20074  19.992   7.670   3.871  0.1832 -0.0370 -0.2180
    1DIPC   D3B20075  20.065   8.057   3.988 -0.0472  0.0455  0.1002
    1DIPC   C4B20076  20.097   8.127   4.349 -0.2500 -0.4570  0.0417
    1DIPC   NC320077  26.818  17.165   2.496 -0.0450 -0.1379 -0.2403
    1DIPC   PO420078  27.118  16.972   2.752 -0.0184  0.2360  0.1517
    1DIPC   GL120079  27.225  16.924   3.150 -0.1751  0.2350 -0.1421
    1DIPC   GL220080  27.083  16.840   3.356  0.0088 -0.2647 -0.0517
    1DIPC   C1A20081  27.563  16.721   3.336  0.0694  0.3719  0.0514
    1DIPC   D2A20082  27.929  16.732   3.177  0.1984  0.0050  0.2469
    1DIPC   D3A20083  28.163  16.254   2.982 -0.1642 -0.1530 -0.1314
    1DIPC   C4A20084  28.293  15.843   3.007  0.1149 -0.0675  0.0898
    1DIPC   C1B20085  27.298  16.811   3.801  0.1692  0.0342  0.1482
    1DIPC   D2B20086  27.372  16.514   4.094  0.1271 -0.3614  0.1832
    1DIPC   D3B20087  26.936  16.401   4.066 -0.0118  0.2421  0.1543
    1DIPC   C4B20088  26.674  16.505   4.334 -0.0556  0.0726 -0.0329
    1DIPC   NC320089   6.848  27.562   2.916 -0.1137  0.2714  0.1426
    1DIPC   PO420090   6.698  27.901   2.979 -0.1908  0.1295  0.5058
    1DIPC   GL120091   6.467  27.430   3.207  0.1070 -0.4648 -0.1505
    1DIPC   GL220092   6.474  27.149   2.946  0.1022  0.0604  0.1412
    1DIPC   C1A20093   6.338  27.223   3.551  0.2539  0.1072 -0.1528
    1DIPC   D2A20094   6.282  26.778   3.762 -0.1397 -0.0713 -0.2099
    1DIPC   D3A20095   6.046  26.835   4.163 -0.0573  0.2221  0.2292
    1DIPC   C4A20096   6.092  26.528   4.582 -0.0618  0.0094  0.3209
    1DIPC   C1B20097   6.517  26.837   3.271  0.1639  0.2341 -0.2304
    1DIPC   D2B20098   6.809  26.940   3.690 -0.4427  0.1707 -0.0920
    1DIPC   D3B20099   7.164  27.261   3.756  0.0895 -0.0991  0.1156
    1DIPC   C4B20100   7.414  27.373   3.402 -0.1037 -0.0760  0.1752
    1DIPC   NC320101   7.169   2.875   3.346  0.0359  0.1517  0.1146
    1DIPC   PO420102   6.792   2.681   3.325  0.3924 -0.3220 -0.2459
    1DIPC   GL120103   6.855   2.880   3.731 -0.3055 -0.2368  0.0227
    1DIPC   GL220104   6.935   2.656   4.002  0.1446 -0.1020  0.1662
    1DIPC   C1A20105   6.710   3.245   4.077  0.1249 -0.0976 -0.0145
    1DIPC   D2A20106   6.473   3.426   4.295 -0.2670  0.1358 -0.3230
    1DIPC   D3A20107   6.361   3.085   4.458  0.0624  0.0776  0.2821
    1DIPC   C4A20108   6.150   2.822   4.116 -0.0470  0.1647 -0.0545
    1DIPC   C1B20109   6.810   2.807   4.370  0.0131  0.4661 -0.1206
    1DIPC   D2B20110   6.708   2.726   4.761  0.0822  0.0940 -0.0301
    1DIPC   D3B20111   6.667   2.301   4.781  0.0053 -0.0458 -0.0461
    1DIPC   C4B20112   6.403   1.982   4.550  0.1037  0.0616 -0.4986
    1DIPC   NC320113   3.073   7.766   3.180  0.0670  0.4188 -0.5230
    1DIPC   PO420114   3.438   7.451   3.103 -0.0247 -0.0141 -0.0091
    1DIPC   GL120115   3.243   7.420   3.534  0.1884  0.2299 -0.4843
    1DIPC   GL220116   2.870   7.265   3.696 -0.1423 -0.0770  0.1812
    1DIPC   C1A20117   3.304   7.548   3.989 -0.2410 -0.0018  0.2166
    1DIPC   D2A20118   3.621   7.606   4.281  0.1389  0.0371 -0.2599
    1DIPC   D3A20119   3.464   7.348   4.483 -0.0370  0.1012 -0.2034
    1DIPC   C4A20120   3.088   7.593   4.495  0.2222 -0.2792  0.1784
    1DIPC   C1B20121   2.647   7.055   4.063 -0.2328  0.0953 -0.0787
    1DIPC   D2B20122   2.394   6.903   4.367 -0.0048  0.2146  0.2956
    1DIPC   D3B20123   2.358   7.091   4.640  0.5125  0.0665  0.0944
    1DIPC   C4B20124   1.962   7.080   4.896 -0.1087 -0.0579 -0.1799
    1DIPC   NC320125  19.938  22.321   3.372 -0.0859  0.0187  0.2208
    1DIPC   PO420126  19.988  22.730   3.304 -0.1359  0.2953  0.2243
    1DIPC   GL120127  19.796  22.628   3.788  0.0410  0.0526  0.1465
    1DIPC   GL220128  19.709  22.806   3.872  0.0839 -0.4715  0.0604
    1DIPC   C1A20129  19.796  22.250   4.184 -0.0433 -0.0069 -0.0763
    1DIPC   D2A20130  19.705  21.993   4.524 -0.1354  0.3078  0.0955
    1DIPC   D3A20131  19.923  21.962   4.873  0.0803 -0.0479 -0.1004
    1DIPC   C4A20132  20.241  22.290   5.022  0.3048 -0.0985 -0.0663
    1DIPC   C1B20133  19.439  22.625   4.245 -0.0377 -0.2383  0.0519
    1DIPC   D2B20134  19.176  22.655   4.540 -0.1397 -0.0845 -0.2544
    1DIPC   D3B20135  19.263  22.896   4.970  0.0495 -0.1733 -0.1858
    1DIPC   C4B20136  19.494  23.254   4.924  0.2410  0.0492  0.1397
    1DIPC   NC320137  26.893  28.834   2.976  0.1954  0.4099 -0.1335
    1DIPC   PO420138  27.339  29.006   2.943 -0.1099 -0.1835  0.2021
    1DIPC   GL120139  27.327  28.645   3.350  0.0052 -0.0249  0.3012
    1DIPC   GL220140  27.574  28.355   3.346  0.1177 -0.1054 -0.0024
    1DIPC   C1A20141  26.933  28.510   3.584 -0.2116  0.0552 -0.3729
    1DIPC   D2A20142  26.651  28.295   3.852 -0.1390 -0.1360  0.1197
    1DIPC   D3A20143  26.285  28.098   3.684  0.0287  0.1652 -0.0815
    1DIPC   C4A20144  26.192  27.654   3.634 -0.1801 -0.2284  0.1415
    1DIPC   C1B20145  27.841  28.568   3.687  0.3302  0.3690  0.0663
    1DIPC   D2B20146  27.832  28.981   3.597  0.2485  0.0076  0.1464
    1DIPC   D3B20147  27.827  28.916   4.066  0.2583 -0.1392 -0.0536
    1DIPC   C4B20148  27.692  28.456   4.158  0.0926  0.1265 -0.0508
    1DIPC   NC320149   3.488  28.325   2.611 -0.1946 -0.0865  0.2337
    1DIPC   PO420150   3.694  28.446   2.950 -0.3485  0.2069  0.1547
    1DIPC   GL120151   3.607  28.243   3.395 -0.2644  0.1595 -0.0503
    1DIPC   GL220152   3.790  28.389   3.596 -0.1088  0.0583 -0.2336
    1DIPC   C1A20153   3.425  28.131   3.761 -0.1427 -0.1637  0.2439
    1DIPC   D2A20154   3.345  28.149   4.204 -0.1135  0.1981  0.1910
    1DIPC   D3A20155   3.275  27.908   4.566 -0.1226 -0.1827 -0.2216
    1DIPC   C4A20156   2.867  27.669   4.473 -0.1666 -0.2026 -0.1986
    1DIPC   C1B20157   3.653  28.486   4.026  0.0807  0.2084  0.0130
    1DIPC   D2B20158   3.859  28.534   4.386  0.2764  0.0663  0.3053
    1DIPC   D3B20159   4.326  28.416   4.456  0.1198  0.0077  0.0448
    1DIPC   C4B20160   4.230  27.987   4.511 -0.1888 -0.1664  0.1497
    1DIPC   NC320161  29.647  13.768   2.155 -0.0139  0.0268 -0.0090
    1DIPC   PO420162  29.209  13.946   2.003  0.0580  0.0141  0.0148
    1DIPC   GL120163  29.348  13.969   2.454 -0.1023 -0.0484  0.1288
    1DIPC   GL220164  29.107  13.931   2.639 -0.2007 -0.0595  0.0025
    1DIPC   C1A20165  29.600  14.019   2.744  0.1362 -0.0094 -0.1255
    1DIPC   D2A20166  29.760  13.787   3.161  0.0827  0.0327  0.2315
    1DIPC   D3A20167  29.464  14.166   3.381 -0.1537  0.0910 -0.0021
    1DIPC   C4A20168  29.166  14.162   3.114  0.0438 -0.1930 -0.0547
    1DIPC   C1B20169  28.813  13.806   2.990  0.2083  0.0467 -0.1124
    1DIPC   D2B20170  28.657  13.771   3.394 -0.1149  0.2447 -0.0930
    1DIPC   D3B20171  29.022  13.695   3.472 -0.1891 -0.0977 -0.2238
    1DIPC   C4B20172  29.158  13.901   3.835 -0.0501  0.3156  0.0461
    1DIPC   NC320173  27.823  15.925   2.100  0.0187  0.0775  0.3718
    1DIPC   PO420174  28.005  16.354   2.348 -0.1863 -0.0478 -0.0358
    1DIPC   GL120175  27.750  16.257   2.650  0.2981  0.0381 -0.1740
    1DIPC   GL220176  27.818  15.954   2.804  0.0911 -0.2095 -0.1301
    1DIPC   C1A20177  27.523  16.299   3.118  0.0500 -0.2738 -0.0780
    1DIPC   D2A20178  27.466  16.277   3.619 -0.2494 -0.3046  0.0901
    1DIPC   D3A20179  27.828  16.379   3.614  0.0256 -0.1271 -0.0299
    1DIPC   C4A20180  27.821  16.644   3.948 -0.1297 -0.2233  0.0802
    1DIPC   C1B20181  27.828  15.770   3.194  0.2353  0.1397 -0.2058
    1DIPC   D2B20182  27.679  15.828   3.664  0.0874 -0.3597 -0.2154
    1DIPC   D3B20183  27.974  15.945   4.040 -0.1292  0.4248 -0.2766
    1DIPC   C4B20184  28.209  16.305   4.021  0.2221  0.1215 -0.3211
    1DIPC   NC320185   2.257  28.752   2.633  0.0280  0.2450  0.1847
    1DIPC   PO420186   2.654  28.817   2.861 -0.1189 -0.0270  0.0092
    1DIPC   GL120187   2.632  28.499   3.223  0.0821 -0.2630  0.0261
    1DIPC   GL220188   2.876  28.557   3.488 -0.2205 -0.0274  0.0277
    1DIPC   C1A20189   2.478  28.359   3.623  0.0951  0.1072 -0.2022
    1DIPC   D2A20190   2.301  28.346   4.051  0.0538  0.0967 -0.1013
    1DIPC   D3A20191   2.328  28.684   4.419  0.1596 -0.0910 -0.2103
    1DIPC   C4A20192   2.381  29.115   4.386  0.1850  0.1036 -0.1822
    1DIPC   C1B20193   3.226  28.590   3.752 -0.0995 -0.3846  0.2893
    1DIPC   D2B20194   3.443  29.027   3.719 -0.3497  0.0039  0.1880
    1DIPC   D3B20195   3.333  29.102   4.172 -0.1671 -0.0834  0.0667
    1DIPC   C4B20196   3.257  28.702   4.371 -0.4944 -0.1801  0.1918
    1DIPC   NC320197  17.500   7.405   2.486 -0.2595 -0.0742 -0.0410
    1DIPC   PO420198  17.041   7.529   2.442 -0.1784  0.3299 -0.2190
    1DIPC   GL120199  17.110   7.253   2.894 -0.0040  0.0355 -0.0015
    1DIPC   GL220200  17.107   7.524   2.993 -0.0094  0.3594 -0.1470
    1DIPC   C1A20201  17.197   7.199   3.323  0.1869 -0.1335  0.0193
    1DIPC   D2A20202  17.509   7.370   3.474  0.1773  0.3201 -0.0509
    1DIPC   D3A20203  17.408   7.737   3.551 -0.0731 -0.1335  0.0094
    1DIPC   C4A20204  17.333   8.004   3.879 -0.0385 -0.1343 -0.1119
    1DIPC   C1B20205  16.926   7.679   3.367 -0.0879 -0.2631 -0.0490
    1DIPC   D2B20206  17.015   7.582   3.777  0.0560  0.2687  0.0179
    1DIPC   D3B20207  17.408   7.537   4.059 -0.0179 -0.0498 -0.0554
    1DIPC   C4B20208  17.813   7.661   4.090 -0.1922  0.2782 -0.0789
    1DIPC   NC320209  22.201   0.382   3.326  0.5125 -0.2766 -0.1773
    1DIPC   PO420210  21.795   0.239   3.136 -0.0367 -0.2035 -0.1807
    1DIPC   GL120211  21.694   0.109   3.592  0.0899 -0.1503 -0.0460
    1DIPC   GL220212  22.007   0.092   3.695  0.0520 -0.2508 -0.2128
    1DIPC   C1A20213  21.597  -0.010   4.043 -0.0414 -0.0491  0.0112
    1DIPC   D2A20214  21.719  -0.063   4.464 -0.2302  0.2052  0.1190
    1DIPC   D3A20215  21.241   0.014   4.382 -0.0132  0.1907  0.2952
    1DIPC   C4A20216  20.845   0.179   4.567  0.2267 -0.0432 -0.0829
    1DIPC   C1B20217  22.104  -0.208   4.065  0.1669 -0.0616 -0.1967
    1DIPC   D2B20218  21.851  -0.456   4.206 -0.1132  0.0922  0.2813
    1DIPC   D3B20219  21.961  -0.425   4.691 -0.0235  0.0581  0.2657
    1DIPC   C4B20220  22.182  -0.506   4.996 -0.1194  0.0705  0.0902
    1DIPC   NC320221  10.988  21.340   2.232 -0.2223 -0.0418  0.1871
    1DIPC   PO420222  11.436  21.184   2.134 -0.2197 -0.1704  0.1763
    1DIPC   GL120223  11.428  21.098   2.508 -0.0527 -0.3091  0.0858
    1DIPC   GL220224  11.374  21.297   2.650 -0.0429 -0.4139 -0.0014
    1DIPC   C1A20225  11.738  21.156   2.896  0.0118 -0.0772  0.1704
    1DIPC   D2A20226  11.720  21.264   3.339  0.2459 -0.0193  0.3848
    1DIPC   D3A20227  11.470  21.010   3.378 -0.0846  0.1129  0.0293
    1DIPC   C4A20228  11.341  20.790   3.020 -0.1326 -0.0571  0.0379
    1DIPC   C1B20229  11.244  21.402   3.050 -0.0102  0.4007 -0.0005
    1DIPC   D2B20230  11.102  21.528   3.380  0.0033 -0.1372  0.1386
    1DIPC   D3B20231  10.721  21.385   3.620  0.0277  0.2422 -0.0240
    1DIPC   C4B20232  10.650  21.547   4.079  0.0376 -0.1052  0.2557
    1DIPC   NC320233  22.662   4.075   3.254  0.0385 -0.0920 -0.0102
    1DIPC   PO420234  23.045   4.124   3.314  0.0869 -0.1796  0.2223
    1DIPC   GL120235  23.108   4.407   3.636  0.0587  0.2353  0.2145
    1DIPC   GL220236  23.140   4.671   3.517 -0.2365 -0.0067 -0.0432
    1DIPC   C1A20237  23.006   4.284   4.007 -0.0547 -0.2420  0.1230
    1DIPC   D2A20238  22.708   4.105   4.238 -0.1676 -0.2480 -0.0299
    1DIPC   D3A20239  22.798   4.113   4.575  0.1926  0.2257 -0.1812
    1DIPC   C4A20240  23.197   4.153   4.737 -0.1112  0.0561  0.0980
    1DIPC   C1B20241  23.068   4.800   3.915 -0.1608 -0.2355 -0.1054
    1DIPC   D2B20242  22.632   4.596   4.137 -0.0753  0.1555  0.1524
    1DIPC   D3B20243  22.991   4.583   4.491  0.3187  0.0551  0.2698
    1DIPC   C4B20244  22.931   4.551   4.911 -0.0926  0.2118 -0.1774
    1DIPC   NC320245  16.164   3.337   1.976  0.3197 -0.0070 -0.0201
    1DIPC   PO420246  16.348   3.558   2.403 -0.1019 -0.1502  0.3171
    1DIPC   GL120247  16.595   3.509   2.755  0.1746 -0.3447  0.1473
    1DIPC   GL220248  16.495   3.820   2.844 -0.1434 -0.2017 -0.2609
    1DIPC   C1A20249  16.449   3.305   3.077 -0.1412  0.1842 -0.0517
    1DIPC   D2A20250  16.156   3.398   3.330 -0.2133  0.2736 -0.0353
    1DIPC   D3A20251  16.544   3.307   3.660  0.0445 -0.0059 -0.1794
    1DIPC   C4A20252  16.442   3.522   4.020  0.0040  0.3815  0.3939
    1DIPC   C1B20253  16.566   3.756   3.306  0.2774 -0.0988 -0.1267
    1DIPC   D2B20254  16.804   3.889   3.668  0.0125 -0.0276  0.0740
    1DIPC   D3B20255  16.870   3.854   4.045 -0.0777  0.0474 -0.0137
    1DIPC   C4B20256  16.750   3.671   4.401  0.0840  0.0653 -0.1685
    1DIPC   NC320257  12.911  22.241   2.171 -0.0141  0.0192 -0.1081
    1DIPC   PO420258  12.742  22.625   1.987  0.1382  0.1045  0.0729
    1DIPC   GL120259  12.494  22.533   2.422  0.1254 -0.1226 -0.0079
    1DIPC   GL220260  12.565  22.875   2.573 -0.2662  0.2421 -0.1336
    1DIPC   C1A20261  12.367  22.322   2.837  0.0500 -0.0476 -0.1755
    1DIPC   D2A20262  12.392  21.923   3.028  0.2377  0.0161 -0.1342
    1DIPC   D3A20263  12.352  22.141   3.433  0.1482 -0.0731 -0.1326
    1DIPC   C4A20264  12.493  22.208   3.801  0.3502 -0.0021 -0.0176
    1DIPC   C1B20265  12.837  22.679   2.808 -0.2272  0.0365 -0.1038
    1DIPC   D2B20266  12.733  22.308   3.144  0.0989 -0.2716 -0.1202
    1DIPC   D3B20267  13.166  22.235   2.946  0.2301  0.0908 -0.0455
    1DIPC   C4B20268  13.625  22.351   3.173 -0.2574 -0.0542  0.1401
    1DIPC   NC320269   9.453   6.509   3.287 -0.1819  0.3215 -0.2686
    1DIPC   PO420270   9.404   6.601   3.750 -0.0370  0.3496  0.1490
    1DIPC   GL120271   9.589   6.765   4.181 -0.0034  0.0282 -0.1602
    1DIPC   GL220272   9.186   6.720   4.419 -0.5333 -0.2604 -0.2442
    1DIPC   C1A20273   9.624   7.299   4.369  0.0619  0.0263 -0.1859
    1DIPC   D2A20274   9.777   7.384   4.797  0.2524 -0.2312  0.1183
    1DIPC   D3A20275   9.443   7.489   4.898 -0.0234  0.0214 -0.0733
    1DIPC   C4A20276   9.138   7.482   4.545 -0.1394 -0.1439 -0.2796
    1DIPC   C1B20277   9.272   7.015   4.688 -0.0684 -0.1729 -0.3945
    1DIPC   D2B20278   9.293   7.045   5.131 -0.2424  0.3971  0.5212
    1DIPC   D3B20279   9.383   6.564   5.189  0.2491  0.0637 -0.1400
    1DIPC   C4B20280   9.805   6.414   5.427  0.0754  0.4382 -0.1388
    1DIPC   NC320281  13.154   4.020   3.306 -0.1916 -0.0107  0.0984
    1DIPC   PO420282  12.970   4.484   3.225 -0.1939 -0.2306  0.0444
    1DIPC   GL120283  12.976   4.721   3.643 -0.3251  0.1650  0.0105
    1DIPC   GL220284  13.228   4.967   3.805  0.0020 -0.3160 -0.2258
    1DIPC   C1A20285  13.041   4.552   4.158 -0.1336 -0.0220  0.2566
    1DIPC   D2A20286  13.002   4.507   4.550 -0.1170 -0.0490  0.0578
    1DIPC   D3A20287  12.994   4.991   4.467 -0.0896 -0.1941  0.0626
    1DIPC   C4A20288  13.168   5.259   4.731 -0.0596  0.4688 -0.2641
    1DIPC   C1B20289  12.883   5.129   4.049  0.0780  0.2220  0.1712
    1DIPC   D2B20290  12.601   5.384   4.213 -0.2294  0.1579  0.0150
    1DIPC   D3B20291  12.694   5.301   4.693 -0.1418 -0.0085 -0.1088
    1DIPC   C4B20292  12.919   5.625   4.946 -0.1236 -0.1909  0.0054
    1DIPC   NC320293  18.929   2.097   2.314 -0.1193  0.0687 -0.0716
    1DIPC   PO420294  18.881   2.244   2.730  0.0380 -0.2606 -0.1902
    1DIPC   GL120295  19.018   2.536   3.117 -0.0175  0.2751  0.0911
    1DIPC   GL220296  19.347   2.577   3.314  0.0400 -0.2159  0.0274
    1DIPC   C1A20297  18.844   2.509   3.521  0.1869 -0.0657  0.1879
    1DIPC   D2A20298  18.686   2.453   4.025  0.1337  0.0436  0.0088
    1DIPC   D3A20299  18.540   2.855   4.185  0.1793 -0.1381 -0.2941
    1DIPC   C4A20300  18.522   3.118   3.768  0.0197 -0.0626  0.0856
    1DIPC   C1B20301  19.239   2.495   3.732  0.1755 -0.0097 -0.0011
    1DIPC   D2B20302  19.117   2.350   4.173  0.3270  0.1852 -0.0129
    1DIPC   D3B20303  19.225   2.301   4.615  0.0789 -0.4631 -0.1033
    1DIPC   C4B20304  19.592   1.988   4.827 -0.0497 -0.1855  0.0541
    1DIPC   NC320305  14.818  26.516   3.232  0.2186 -0.2716 -0.0701
    1DIPC   PO420306  15.067  26.169   3.363 -0.1436 -0.0533 -0.1018
    1DIPC   GL120307  14.971  25.925   3.724 -0.2655 -0.0072 -0.0479
    1DIPC   GL220308  15.183  26.186   3.884 -0.0311  0.2578 -0.0523
    1DIPC   C1A20309  14.649  25.890   3.950  0.0092  0.4258  0.0212
    1DIPC   D2A20310  14.349  25.676   4.160 -0.1296  0.0413  0.1547
    1DIPC   D3A20311  14.707  25.518   4.406  0.2072 -0.0176  0.2735
    1DIPC   C4A20312  14.624  25.502   4.874 -0.2580  0.0365 -0.2859
    1DIPC   C1B20313  15.460  26.398   4.140  0.2514  0.2340  0.1773
    1DIPC   D2B20314  15.815  26.811   4.276  0.1943  0.0797  0.0906
    1DIPC   D3B20315  15.675  26.647   4.709 -0.3491  0.0013  0.1142
    1DIPC   C4B20316  15.431  26.282   4.629  0.0847 -0.2205 -0.2721
    1DIPC   NC320317   0.992  15.318   2.078 -0.0571 -0.2543 -0.1423
    1DIPC   PO420318   1.362  15.636   2.160  0.2349 -0.2545  0.1910
    1DIPC   GL120319   1.381  15.626   2.552 -0.0302 -0.1208 -0.3925
    1DIPC   GL220320   1.576  15.474   2.647 -0.0812  0.0693  0.0062
    1DIPC   C1A20321   1.194  15.767   2.994 -0.2024  0.0244  0.0316
    1DIPC   D2A20322   1.420  15.785   3.369  0.1012 -0.0520 -0.0308
    1DIPC   D3A20323   1.386  15.524   3.673 -0.1777  0.0846 -0.3058
    1DIPC   C4A20324   1.021  15.341   3.801  0.0732 -0.2725 -0.1964
    1DIPC   C1B20325   1.681  15.793   2.916  0.5094 -0.3044  0.1168
    1DIPC   D2B20326   1.729  16.148   3.247  0.0055  0.1625  0.0601
    1DIPC   D3B20327   1.383  16.300   3.563  0.1132  0.2195  0.1315
    1DIPC   C4B20328   1.346  16.725   3.703 -0.3796  0.2854  0.0538
    1DIPC   NC320329  27.312   4.335   2.860 -0.1412 -0.2984  0.1150
    1DIPC   PO420330  26.948   4.398   3.094  0.1661  0.1949  0.0119
    1DIPC   GL120331  26.939   4.504   3.490 -0.0938 -0.2918 -0.0032
    1DIPC   GL220332  27.243   4.709   3.569 -0.1733 -0.1292  0.0491
    1DIPC   C1A20333  27.200   4.308   3.843 -0.0733  0.0583  0.1737
    1DIPC   D2A20334  27.429   4.426   4.202  0.0236 -0.2351  0.0375
    1DIPC   D3A20335  27.151   4.273   4.588 -0.4956 -0.0397 -0.0400
    1DIPC   C4A20336  27.298   3.903   4.885  0.2140  0.1209  0.1043
    1DIPC   C1B20337  27.041   4.813   3.965 -0.2546  0.1908  0.1148
    1DIPC   D2B20338  26.880   4.536   4.249  0.1628 -0.2157  0.1243
    1DIPC   D3B20339  26.673   4.270   3.976  0.0458 -0.1176  0.0802
    1DIPC   C4B20340  26.201   4.294   4.018  0.1136 -0.1387  0.2442
    1DIPC   NC320341  18.952  22.985   2.921 -0.1852  0.2972  0.1544
    1DIPC   PO420342  19.410  23.011   3.003 -0.3602 -0.1795  0.0727
    1DIPC   GL120343  19.212  23.030   3.365  0.3549  0.0074 -0.0885
    1DIPC   GL220344  18.973  23.171   3.477  0.1433 -0.2304  0.3066
    1DIPC   C1A20345  19.088  22.717   3.692 -0.2974 -0.0972 -0.0537
    1DIPC   D2A20346  18.842  22.282   3.732 -0.2252 -0.1307 -0.0725
    1DIPC   D3A20347  18.915  22.476   4.103  0.1480 -0.1051  0.4664
    1DIPC   C4A20348  18.969  22.217   4.452  0.3372  0.0219 -0.0207
    1DIPC   C1B20349  18.745  23.209   3.899  0.1941 -0.1793 -0.2006
    1DIPC   D2B20350  18.607  23.336   4.267  0.1133  0.2916  0.3448
    1DIPC   D3B20351  18.193  23.161   4.402 -0.2079  0.2541 -0.0074
    1DIPC   C4B20352  18.050  23.130   4.812 -0.0065 -0.2888 -0.0250
    1DIPC   NC320353   6.250   0.249   3.258  0.1479  0.1657  0.3265
    1DIPC   PO420354   5.881   0.054   3.334  0.1194  0.0693  0.0398
    1DIPC   GL120355   5.700   0.074   3.727  0.1038  0.1592 -0.1339
    1DIPC   GL220356   5.480   0.368   3.727  0.0972 -0.2214 -0.2389
    1DIPC   C1A20357   5.853   0.169   4.107  0.2983  0.0430  0.1721
    1DIPC   D2A20358   5.972   0.272   4.489  0.0027  0.1027 -0.2491
    1DIPC   D3A20359   6.415   0.524   4.601  0.0218  0.0923  0.2691
    1DIPC   C4A20360   6.346   0.870   4.833 -0.0136  0.1059 -0.0267
    1DIPC   C1B20361   5.305   0.236   4.075 -0.1702  0.2774 -0.1633
    1DIPC   D2B20362   5.412   0.087   4.433 -0.0057 -0.1601 -0.0916
    1DIPC   D3B20363   5.377  -0.437   4.555 -0.2037 -0.0390 -0.2397
    1DIPC   C4B20364   5.027  -0.595   4.487  0.0646  0.0767  0.1927
    1DIPC   NC320365  23.983  21.651   2.843 -0.2548  0.0300  0.1107
    1DIPC   PO420366  23.882  22.038   3.134 -0.0116  0.0159 -0.0718
    1DIPC   GL120367  23.962  22.049   3.687  0.0185 -0.0317 -0.4949
    1DIPC   GL220368  23.808  22.315   3.804  0.0239 -0.0909 -0.1045
    1DIPC   C1A20369  23.904  21.963   4.182  0.0179  0.1746  0.3732
    1DIPC   D2A20370  23.788  22.062   4.592 -0.4087 -0.3609 -0.0244
    1DIPC   D3A20371  23.916  22.363   4.909 -0.0404 -0.1007 -0.1689
    1DIPC   C4A20372  23.582  22.646   4.978  0.1612  0.0491  0.0406
    1DIPC   C1B20373  24.133  22.397   4.121  0.2330 -0.0792  0.0096
    1DIPC   D2B20374  24.260  22.296   4.518  0.3254  0.0468  0.0489
    1DIPC   D3B20375  24.270  21.890   4.596 -0.3128 -0.2169 -0.2752
    1DIPC   C4B20376  24.085  21.827   5.019 -0.2709 -0.0368  0.3973
    1DIPC   NC320377  10.685   4.392   3.351 -0.1724  0.0403 -0.3457
    1DIPC   PO420378  10.370   4.385   3.738 -0.0708  0.3015  0.0619
    1DIPC   GL120379  10.388   4.806   4.077 -0.1698  0.3069 -0.1029
    1DIPC   GL220380  10.044   4.806   4.053  0.1337 -0.0455  0.3535
    1DIPC   C1A20381  10.423   4.840   4.582  0.3952 -0.2529 -0.1848
    1DIPC   D2A20382  10.147   4.992   4.944  0.0616 -0.2206 -0.0950
    1DIPC   D3A20383   9.777   5.257   5.046 -0.0820 -0.1890  0.2799
    1DIPC   C4A20384   9.819   5.507   5.433  0.1092  0.2842  0.0763
    1DIPC   C1B20385  10.008   5.046   4.416  0.0041 -0.1907 -0.2377
    1DIPC   D2B20386   9.899   5.383   4.606  0.0202  0.0109 -0.0565
    1DIPC   D3B20387  10.237   5.475   4.804 -0.1557 -0.1731  0.1787
    1DIPC   C4B20388  10.646   5.718   4.601 -0.2446 -0.0819  0.4221
    1DIPC   NC320389  15.347  22.114   1.962  0.2416  0.1170 -0.0808
    1DIPC   PO420390  15.593  21.772   2.194  0.0769 -0.2690  0.0771
    1DIPC   GL120391  15.293  21.907   2.506 -0.2642  0.1138 -0.1762
    1DIPC   GL220392  15.488  22.079   2.768 -0.2535 -0.1469 -0.2499
    1DIPC   C1A20393  14.876  21.954   2.886 -0.0376  0.0544  0.2194
    1DIPC   D2A20394  14.485  21.956   3.022  0.1322  0.0183  0.0212
    1DIPC   D3A20395  14.496  21.815   3.410  0.2922 -0.1830 -0.2442
    1DIPC   C4A20396  14.246  21.803   3.798  0.1625 -0.1194 -0.2546
    1DIPC   C1B20397  15.347  21.713   3.003  0.2086 -0.0204 -0.0255
    1DIPC   D2B20398  15.013  21.447   2.973 -0.0974 -0.1578 -0.3472
    1DIPC   D3B20399  14.994  21.700   3.360 -0.1736 -0.2287 -0.0105
    1DIPC   C4B20400  15.167  22.029   3.343  0.0591 -0.4284  0.2096
    1DIPC   NC320401  15.768  22.906   2.095 -0.1345  0.0286  0.0046
    1DIPC   PO420402  16.090  22.626   2.295 -0.0499  0.0124  0.2371
    1DIPC   GL120403  15.959  22.591   2.718 -0.1586 -0.1662 -0.0813
    1DIPC   GL220404  16.091  22.902   2.872 -0.0029  0.1188 -0.2481
    1DIPC   C1A20405  15.865  22.488   3.127  0.0169  0.2153 -0.2883
    1DIPC   D2A20406  15.735  22.550   3.583 -0.1381  0.0451 -0.2300
    1DIPC   D3A20407  15.467  22.411   3.716  0.1065  0.0279  0.1293
    1DIPC   C4A20408  15.327  22.568   4.150 -0.1185  0.0474 -0.2160
    1DIPC   C1B20409  15.668  22.960   3.018 -0.3511  0.0736 -0.1635
    1DIPC   D2B20410  15.422  23.038   3.384  0.0153 -0.1325 -0.1373
    1DIPC   D3B20411  15.741  23.039   3.491 -0.1388 -0.0609 -0.0834
    1DIPC   C4B20412  16.194  22.898   3.327  0.2525  0.3103 -0.0034
    1DIPC   NC320413  25.186   1.486   3.170  0.3375  0.4184  0.1121
    1DIPC   PO420414  24.903   1.944   3.277  0.0688  0.0092 -0.0176
    1DIPC   GL120415  25.293   1.830   3.488  0.1000  0.0299 -0.0761
    1DIPC   GL220416  25.521   1.806   3.405  0.0299  0.5107  0.1691
    1DIPC   C1A20417  25.430   2.035   3.881  0.1227  0.1140  0.0260
    1DIPC   D2A20418  25.746   2.199   4.060 -0.1256  0.3069 -0.0982
    1DIPC   D3A20419  25.827   1.804   4.137  0.2592 -0.0249  0.4319
    1DIPC   C4A20420  25.890   1.670   4.446 -0.0711 -0.0147 -0.2047
    1DIPC   C1B20421  25.833   2.066   3.585 -0.1941 -0.1461 -0.2767
    1DIPC   D2B20422  26.185   2.041   3.819  0.2828 -0.2459  0.1825
    1DIPC   D3B20423  26.179   2.317   4.191  0.0209 -0.1042  0.3611
    1DIPC   C4B20424  26.404   2.429   4.598  0.0213 -0.0097  0.1704
    1DIPC   NC320425  21.887   5.112   2.291 -0.1826  0.3613  0.0174
    1DIPC   PO420426  22.180   5.248   2.693  0.2151 -0.0009  0.1017
    1DIPC   GL120427  22.146   5.092   3.144 -0.3518  0.1405  0.1691
    1DIPC   GL220428  21.954   4.704   3.317 -0.1468 -0.0321 -0.1037
    1DIPC   C1A20429  22.335   5.230   3.557 -0.1169 -0.1658  0.0835
    1DIPC   D2A20430  22.245   5.035   3.998 -0.3797  0.3063  0.0125
    1DIPC   D3A20431  22.077   5.412   4.238 -0.0257 -0.0700 -0.0851
    1DIPC   C4A20432  21.677   5.553   4.115 -0.0112 -0.2189 -0.4308
    1DIPC   C1B20433  22.287   4.632   3.546  0.1949  0.1012  0.1841
    1DIPC   D2B20434  22.635   4.515   3.647  0.2672 -0.1144  0.1212
    1DIPC   D3B20435  22.697   4.907   3.454 -0.0487  0.0085 -0.0037
    1DIPC   C4B20436  22.935   5.129   3.557 -0.1179 -0.0259  0.0548
    1DIPC   NC320437  25.711   7.918   2.902 -0.0849  0.1025  0.2283
    1DIPC   PO420438  25.321   8.138   2.813  0.0977 -0.2288  0.1466
    1DIPC   GL120439  25.382   8.275   3.168  0.2887  0.2307 -0.0068
    1DIPC   GL220440  25.270   7.873   3.275  0.0957 -0.3331 -0.0404
    1DIPC   C1A20441  25.542   8.298   3.577 -0.2573  0.1692  0.3062
    1DIPC   D2A20442  25.988   8.357   3.548 -0.2148 -0.1477  0.1430
    1DIPC   D3A20443  26.449   8.447   3.316 -0.0331 -0.0416 -0.2345
    1DIPC   C4A20444  26.826   8.674   3.428 -0.3199  0.3596  0.1514
    1DIPC   C1B20445  25.405   7.696   3.720  0.0456 -0.0670 -0.3747
    1DIPC   D2B20446  25.548   7.270   3.998 -0.1422  0.1913  0.0348
    1DIPC   D3B20447  25.354   7.346   4.399 -0.0341 -0.3646 -0.0921
    1DIPC   C4B20448  24.887   7.209   4.473  0.1473  0.1934 -0.0091
    1DIPC   NC320449  23.331  13.897   2.315  0.0259 -0.1742  0.0377
    1DIPC   PO420450  22.860  14.068   2.269  0.0651  0.1315  0.1543
    1DIPC   GL120451  22.919  13.872   2.676  0.0442 -0.0532 -0.1637
    1DIPC   GL220452  23.010  13.530   2.653  0.0772 -0.0431  0.0712
    1DIPC   C1A20453  22.822  13.985   3.091 -0.0512 -0.0378 -0.0653
    1DIPC   D2A20454  22.588  14.246   3.285 -0.0634  0.3054  0.0043
    1DIPC   D3A20455  22.235  14.189   3.122 -0.3102 -0.2867 -0.0892
    1DIPC   C4A20456  21.992  13.826   3.388  0.2198 -0.2695  0.3490
    1DIPC   C1B20457  22.887  13.455   3.104 -0.1650  0.1016  0.0621
    1DIPC   D2B20458  22.775  13.374   3.531 -0.0895 -0.0941  0.1112
    1DIPC   D3B20459  22.658  13.728   3.936  0.0196  0.1125 -0.0881
    1DIPC   C4B20460  22.949  13.935   4.150 -0.2000 -0.0779 -0.1956
    1DIPC   NC320461   4.866   4.900   3.215  0.2586  0.1813 -0.0725
    1DIPC   PO420462   5.225   4.749   3.529  0.3303 -0.0668 -0.4451
    1DIPC   GL120463   4.933   4.795   3.820 -0.0488  0.0575 -0.1582
    1DIPC   GL220464   4.720   4.527   3.813 -0.1365 -0.0817  0.2698
    1DIPC   C1A20465   4.590   4.910   4.069  0.1235 -0.0473 -0.0587
    1DIPC   D2A20466   4.315   4.892   4.391  0.0654  0.1222  0.1842
    1DIPC   D3A20467   4.555   4.905   4.805  0.0220 -0.0973  0.1036
    1DIPC   C4A20468   4.835   5.166   4.790 -0.2708  0.2363 -0.1000
    1DIPC   C1B20469   4.922   4.501   4.233  0.1278  0.1812  0.1424
    1DIPC   D2B20470   4.677   4.371   4.640  0.2183 -0.1761  0.2094
    1DIPC   D3B20471   4.290   4.374   4.534 -0.2166  0.2522  0.2837
    1DIPC   C4B20472   4.137   4.636   4.869 -0.0277  0.2437  0.0303
    1DIPC   NC320473   9.547  26.924   2.863  0.2112  0.0157 -0.3487
    1DIPC   PO420474   9.847  27.035   3.187  0.0371 -0.0683 -0.3248
    1DIPC   GL120475   9.981  27.101   3.553  0.1409  0.2211  0.0232
    1DIPC   GL220476  10.304  27.173   3.534 -0.0110 -0.1475  0.0819
    1DIPC   C1A20477   9.962  26.852   3.907  0.0328  0.2226 -0.0739
    1DIPC   D2A20478   9.804  26.763   4.317 -0.0496  0.1069 -0.1709
    1DIPC   D3A20479   9.562  26.386   4.440 -0.0672  0.4128 -0.1192
    1DIPC   C4A20480   9.803  26.049   4.667 -0.1060 -0.1280 -0.2481
    1DIPC   C1B20481  10.593  26.950   3.813  0.0571  0.1004  0.3840
    1DIPC   D2B20482  10.605  26.899   4.298  0.1147  0.0054 -0.2366
    1DIPC   D3B20483  10.579  26.478   4.536 -0.0446 -0.1245 -0.1676
    1DIPC   C4B20484  10.339  26.167   4.736 -0.0119  0.1223  0.0203
    1DIPC   NC320485  28.693  27.718   2.316  0.1686 -0.0149  0.1675
    1DIPC   PO420486  28.976  27.637   2.667  0.0555 -0.2109 -0.2735
    1DIPC   GL120487  29.102  27.477   3.032 -0.3071  0.2118  0.1635
    1DIPC   GL220488  29.393  27.641   3.163  0.0405 -0.0737 -0.1380
    1DIPC   C1A20489  29.213  27.030   3.149  0.0707  0.2450 -0.0514
    1DIPC   D2A20490  29.285  26.771   3.535  0.1866 -0.2838 -0.0374
    1DIPC   D3A20491  29.139  26.856   3.910 -0.2626  0.0543 -0.2097
    1DIPC   C4A20492  29.209  26.577   4.304 -0.2848 -0.1326  0.3597
    1DIPC   C1B20493  29.339  27.398   3.537  0.1939 -0.1948 -0.0656
    1DIPC   D2B20494  29.341  27.295   4.021 -0.0437  0.3617  0.1864
    1DIPC   D3B20495  29.017  27.210   4.392  0.2711  0.0527 -0.0271
    1DIPC   C4B20496  29.035  27.279   4.864  0.1313 -0.0582  0.0387
    1DIPC   NC320497  11.809   1.322   3.525 -0.0668  0.2551  0.0914
    1DIPC   PO420498  12.170   1.220   3.616 -0.2211 -0.1399 -0.0007
    1DIPC   GL120499  12.039   1.387   4.059  0.0906  0.0881  0.0358
    1DIPC   GL220500  12.277   1.347   4.341  0.0281  0.3325  0.0176
    1DIPC   C1A20501  11.866   1.429   4.532 -0.0060 -0.0857 -0.0182
    1DIPC   D2A20502  11.962   1.569   4.982 -0.0726  0.2931 -0.0048
    1DIPC   D3A20503  11.671   1.858   5.000 -0.2135 -0.0833  0.0538
    1DIPC   C4A20504  11.245   1.899   5.070 -0.0887 -0.1090  0.2147
    1DIPC   C1B20505  12.398   1.703   4.642  0.0852  0.0001 -0.1899
    1DIPC   D2B20506  12.475   2.140   4.711  0.3613  0.1343 -0.2453
    1DIPC   D3B20507  12.597   2.032   5.127 -0.0790 -0.0150  0.2225
    1DIPC   C4B20508  12.469   2.230   5.528  0.0524 -0.0416 -0.0726
    1DIPC   NC320509   0.085   0.507   2.753 -0.1538 -0.4535  0.0733
    1DIPC   PO420510  -0.002   0.330   3.143 -0.0331  0.1375 -0.0374
    1DIPC   GL120511   0.061   0.409   3.488  0.0990  0.0695  0.2233
    1DIPC   GL220512   0.113   0.134   3.671  0.3005  0.0159  0.3812
    1DIPC   C1A20513  -0.159   0.518   3.906  0.1810 -0.0436  0.0607
    1DIPC   D2A20514  -0.221   0.732   4.242  0.2968 -0.0093  0.1780
    1DIPC   D3A20515  -0.071   0.986   4.598  0.2990  0.0018  0.0123
    1DIPC   C4A20516   0.318   1.044   4.441  0.2293  0.0880 -0.0364
    1DIPC   C1B20517   0.115  -0.175   3.868 -0.0072  0.1716 -0.3922
    1DIPC   D2B20518   0.354  -0.137   4.297 -0.0235  0.0545 -0.3500
    1DIPC   D3B20519   0.038   0.226   4.218  0.1015 -0.1356 -0.1081
    1DIPC   C4B20520   0.245   0.618   4.199  0.0891  0.1873 -0.1555
    1DIPC   NC320521  24.764  14.648   2.366  0.1608  0.1463 -0.1812
    1DIPC   PO420522  24.893  14.281   2.334  0.1236 -0.0518  0.1723
    1DIPC   GL120523  24.595  14.309   2.664  0.0205 -0.0596 -0.1069
    1DIPC   GL220524  24.455  14.691   2.746  0.2923  0.0250  0.1220
    1DIPC   C1A20525  24.625  14.203   3.082  0.2610  0.1126 -0.0889
    1DIPC   D2A20526  24.405  14.303   3.493  0.0320  0.0371 -0.0134
    1DIPC   D3A20527  24.184  14.175   3.909  0.1326 -0.2517 -0.0020
    1DIPC   C4A20528  24.304  14.263   4.403 -0.1401 -0.2847 -0.2871
    1DIPC   C1B20529  24.143  14.613   3.069  0.0095  0.2290  0.2442
    1DIPC   D2B20530  23.992  14.606   3.609 -0.1194  0.3166 -0.0906
    1DIPC   D3B20531  24.318  14.694   3.916 -0.2263  0.1823 -0.0394
    1DIPC   C4B20532  24.611  14.471   4.024 -0.1455 -0.1294  0.2790
    1DIPC   NC320533   1.417   2.258   3.307 -0.0738  0.0701  0.2822
    1DIPC   PO420534   1.175   2.740   3.186  0.2479  0.0246  0.0095
    1DIPC   GL120535   1.085   2.685   3.609  0.0317 -0.0319 -0.2589
    1DIPC   GL220536   1.187   2.939   3.654  0.1987  0.1573 -0.1395
    1DIPC   C1A20537   1.316   2.477   3.943 -0.1214  0.1622  0.0724
    1DIPC   D2A20538   1.334   2.530   4.428 -0.1425  0.1695 -0.0770
    1DIPC   D3A20539   1.277   2.201   4.687  0.1068  0.1323  0.0812
    1DIPC   C4A20540   1.630   2.021   4.808  0.0855  0.1915 -0.2178
    1DIPC   C1B20541   0.994   2.878   4.054  0.2102  0.0460 -0.0798
    1DIPC   D2B20542   0.814   2.844   4.489 -0.2186 -0.1835 -0.0035
    1DIPC   D3B20543   0.510   3.168   4.664 -0.1735 -0.4471 -0.3726
    1DIPC   C4B20544   0.147   3.486   4.440  0.0341  0.1366 -0.0234
    1DIPC   NC320545   6.558  25.887   2.225  0.1771 -0.4192 -0.1077
    1DIPC   PO420546   6.574  26.192   2.619 -0.0040  0.1101  0.1344
    1DIPC   GL120547   6.560  26.298   3.057  0.0799 -0.2509  0.1033
    1DIPC   GL220548   6.524  25.978   3.173  0.3536 -0.2067  0.1383
    1DIPC   C1A20549   6.377  26.330   3.432  0.1498  0.1547 -0.1320
    1DIPC   D2A20550   6.364  26.195   3.799 -0.3364 -0.0315  0.1702
    1DIPC   D3A20551   6.649  25.981   3.877  0.1332  0.1651  0.2991
    1DIPC   C4A20552   6.606  25.680   4.159  0.0244  0.2694 -0.0615
    1DIPC   C1B20553   6.148  25.865   3.490  0.0851 -0.0567  0.0512
    1DIPC   D2B20554   6.125  25.715   4.016 -0.1270 -0.0030  0.0598
    1DIPC   D3B20555   5.993  25.363   3.664 -0.2960  0.3444  0.3899
    1DIPC   C4B20556   6.119  25.422   3.215  0.0349  0.0530  0.2596
    1DIPC   NC320557   1.229  16.096   2.354 -0.1099  0.1544 -0.0737
    1DIPC   PO420558   1.327  16.428   2.302  0.1555 -0.3861 -0.1090
    1DIPC   GL120559   1.093  16.575   2.649 -0.0398  0.0463  0.1544
    1DIPC   GL220560   0.932  16.477   2.611  0.3698  0.3293 -0.0939
    1DIPC   C1A20561   1.319  16.768   3.008  0.3805  0.2688  0.0372
    1DIPC   D2A20562   1.198  17.017   3.345  0.2063 -0.0850  0.1154
    1DIPC   D3A20563   1.463  17.202   3.384 -0.0656 -0.0995  0.1304
    1DIPC   C4A20564   1.396  17.617   3.671 -0.0834  0.2044  0.0579
    1DIPC   C1B20565   0.670  16.612   2.869 -0.1843 -0.0536  0.2227
    1DIPC   D2B20566   0.371  16.632   3.199  0.1069  0.2486 -0.0310
    1DIPC   D3B20567   0.249  16.654   3.650  0.2127  0.0285  0.2595
    1DIPC   C4B20568   0.309  17.045   3.903 -0.0228  0.2513 -0.0388
    1DIPC   NC320569  21.728  26.863   3.236  0.1868 -0.0960 -0.0679
    1DIPC   PO420570  21.570  26.582   2.846 -0.1144  0.1686 -0.1105
    1DIPC   GL120571  21.344  26.463   3.184 -0.1889  0.0551 -0.0519
    1DIPC   GL220572  21.526  26.463   3.491  0.1766 -0.0594 -0.3620
    1DIPC   C1A20573  21.045  26.304   3.439 -0.0611 -0.0881  0.2574
    1DIPC   D2A20574  20.537  26.397   3.480 -0.2411  0.3150  0.0080
    1DIPC   D3A20575  20.484  26.318   3.824 -0.0965  0.1074 -0.0995
    1DIPC   C4A20576  20.011  26.338   3.932  0.0612  0.1163 -0.2030
    1DIPC   C1B20577  21.350  26.678   3.825  0.0491  0.0873 -0.3122
    1DIPC   D2B20578  21.330  26.829   4.107 -0.2342  0.1049  0.1853
    1DIPC   D3B20579  21.456  26.423   4.281  0.0235  0.1286  0.2201
    1DIPC   C4B20580  21.332  26.123   3.870  0.0709  0.0404 -0.0368
    1DIPC   NC320581   0.188   5.561   2.987  0.2158 -0.1608  0.1185
    1DIPC   PO420582   0.683   5.436   3.057  0.1170 -0.2393  0.0130
    1DIPC   GL120583   0.391   5.098   3.237 -0.0504 -0.3478 -0.1333
    1DIPC   GL220584   0.436   4.963   3.523  0.0133  0.0123 -0.1542
    1DIPC   C1A20585  -0.041   5.136   3.611  0.1183  0.0134 -0.1587
    1DIPC   D2A20586  -0.370   5.298   4.002 -0.0166  0.2021 -0.0022
    1DIPC   D3A20587  -0.418   5.178   4.397 -0.2774 -0.0799 -0.1767
    1DIPC   C4A20588  -0.923   5.098   4.584  0.2191  0.2133 -0.0357
    1DIPC   C1B20589   0.317   4.976   3.930 -0.1824  0.2129  0.2184
    1DIPC   D2B20590   0.273   4.850   4.305 -0.0216  0.1290  0.0541
    1DIPC   D3B20591   0.640   4.553   4.553  0.2113  0.2280  0.4893
    1DIPC   C4B20592   0.828   4.533   4.963  0.1152 -0.2310 -0.1444
    1DIPC   NC320593  27.723  18.826   2.631 -0.2215  0.0154 -0.0961
    1DIPC   PO420594  28.040  18.421   2.676  0.0914 -0.1201 -0.0332
    1DIPC   GL120595  28.014  18.313   3.042 -0.1955  0.1412  0.2841
    1DIPC   GL220596  27.897  18.004   3.070  0.1726  0.1301  0.0048
    1DIPC   C1A20597  27.953  18.400   3.443  0.1749 -0.0599 -0.0390
    1DIPC   D2A20598  27.848  18.183   3.814  0.4361  0.2181 -0.0315
    1DIPC   D3A20599  27.651  17.838   3.537 -0.0837  0.2474 -0.0697
    1DIPC   C4A20600  27.550  17.673   3.157  0.1279 -0.0659  0.0952
    1DIPC   C1B20601  27.453  18.154   3.224 -0.0834 -0.2740  0.0070
    1DIPC   D2B20602  27.428  18.509   3.482  0.0054 -0.0126 -0.0901
    1DIPC   D3B20603  27.546  18.547   3.982 -0.3728 -0.0634  0.2600
    1DIPC   C4B20604  27.889  18.585   4.124  0.3301 -0.1452 -0.0155
    1DIPC   NC320605   5.572   7.389   3.747 -0.3231 -0.1222 -0.1697
    1DIPC   PO420606   5.471   7.857   3.543 -0.2090  0.2594  0.0690
    1DIPC   GL120607   5.686   7.886   4.008  0.3014  0.0551 -0.0750
    1DIPC   GL220608   5.642   7.607   4.199  0.1219  0.0044 -0.1044
    1DIPC   C1A20609   5.631   8.179   4.396 -0.2847  0.0665 -0.0001
    1DIPC   D2A20610   5.998   8.332   4.670 -0.1417 -0.0547 -0.1315
    1DIPC   D3A20611   5.799   8.540   4.954 -0.0960 -0.1562 -0.1119
    1DIPC   C4A20612   5.732   8.449   5.463  0.2324  0.2055 -0.1007
    1DIPC   C1B20613   5.896   7.705   4.550  0.1206  0.3936 -0.0355
    1DIPC   D2B20614   6.288   7.758   4.598 -0.2146 -0.1262 -0.2266
    1DIPC   D3B20615   6.548   7.393   4.603  0.1190 -0.1893 -0.1790
    1DIPC   C4B20616   6.698   7.383   4.987 -0.4096  0.0510  0.1433
    1DIPC   NC320617  29.054   2.187   3.031  0.0412 -0.1535 -0.1412
    1DIPC   PO420618  28.993   2.565   3.198  0.1275  0.0793  0.0042
    1DIPC   GL120619  28.764   2.464   3.601  0.2234  0.3502 -0.1312
    1DIPC   GL220620  28.993   2.299   3.625 -0.3412 -0.0004  0.1761
    1DIPC   C1A20621  28.441   2.586   3.833  0.1155 -0.0267  0.3059
    1DIPC   D2A20622  28.386   2.984   4.151  0.4001 -0.1172 -0.3454
    1DIPC   D3A20623  28.687   3.109   3.763 -0.5818  0.0160  0.3355
    1DIPC   C4A20624  28.482   3.545   3.769  0.0593 -0.0191  0.2449
    1DIPC   C1B20625  29.138   2.331   3.942 -0.1451 -0.2256  0.1677
    1DIPC   D2B20626  29.236   2.086   4.365 -0.0784  0.1358 -0.1231
    1DIPC   D3B20627  28.917   2.124   4.771  0.1811  0.1037 -0.0676
    1DIPC   C4B20628  28.901   2.458   4.845 -0.1893 -0.2946 -0.2211
    1DIPC   NC320629   2.402   1.226   2.983 -0.1123  0.0115 -0.2919
    1DIPC   PO420630   2.205   1.501   3.215  0.1931  0.2521  0.2644
    1DIPC   GL120631   2.077   1.262   3.494 -0.1570 -0.4108  0.2635
    1DIPC   GL220632   2.325   1.098   3.540  0.2583 -0.1678 -0.1401
    1DIPC   C1A20633   1.854   1.188   3.895 -0.0255  0.1493 -0.0907
    1DIPC   D2A20634   1.828   1.416   4.316 -0.4623  0.1298 -0.0308
    1DIPC   D3A20635   1.525   1.773   4.276 -0.0373 -0.3671 -0.0222
    1DIPC   C4A20636   1.615   2.166   4.297  0.0655 -0.1985 -0.0513
    1DIPC   C1B20637   2.163   0.807   3.763  0.2774 -0.0763 -0.3503
    1DIPC   D2B20638   1.982   0.885   4.263  0.0890  0.0142  0.3116
    1DIPC   D3B20639   2.093   1.033   4.691  0.0099 -0.0310 -0.2385
    1DIPC   C4B20640   2.130   1.410   4.950  0.0168  0.0127  0.0429
    1DIPC   NC320641  27.471  17.029   2.327  0.2269 -0.1185 -0.2196
    1DIPC   PO420642  27.723  17.429   2.337 -0.3099  0.3206 -0.1686
    1DIPC   GL120643  27.723  17.441   2.740 -0.0283 -0.0316  0.2519
    1DIPC   GL220644  27.571  17.179   2.824  0.2608  0.0416 -0.0523
    1DIPC   C1A20645  28.061  17.177   2.927  0.2049 -0.0871 -0.3887
    1DIPC   D2A20646  28.234  17.111   3.338 -0.1913 -0.0523  0.1317
    1DIPC   D3A20647  27.895  17.165   3.609  0.0204  0.0756  0.0151
    1DIPC   C4A20648  28.002  17.496   3.785 -0.1065 -0.1215 -0.0055
    1DIPC   C1B20649  27.626  17.196   3.211 -0.4047 -0.0132 -0.0871
    1DIPC   D2B20650  27.384  17.221   3.514 -0.0374  0.3898  0.3719
    1DIPC   D3B20651  27.382  17.539   3.906  0.3646  0.0956  0.1925
    1DIPC   C4B20652  27.019  17.640   4.116 -0.1628 -0.0451 -0.1651
    1DIPC   NC320653  15.531   5.044   2.886 -0.3093 -0.0839  0.0923
    1DIPC   PO420654  15.197   5.344   3.116  0.0428 -0.2924  0.0267
    1DIPC   GL120655  15.352   5.467   3.482  0.0548  0.1281 -0.2427
    1DIPC   GL220656  15.753   5.218   3.458  0.2898 -0.0973  0.1119
    1DIPC   C1A20657  15.254   5.564   3.924 -0.1330  0.1244 -0.3202
    1DIPC   D2A20658  15.366   5.445   4.463  0.0046  0.0321  0.0728
    1DIPC   D3A20659  15.282   5.728   4.746  0.1660 -0.0226  0.2196
    1DIPC   C4A20660  15.053   6.125   4.654  0.1206 -0.2034  0.0249
    1DIPC   C1B20661  15.637   5.246   3.950 -0.0106 -0.0734 -0.0196
    1DIPC   D2B20662  15.228   5.064   4.141  0.4642 -0.1332 -0.1393
    1DIPC   D3B20663  15.274   4.990   3.649 -0.1042 -0.1872  0.2120
    1DIPC   C4B20664  15.117   4.686   3.391  0.1123 -0.1127 -0.1285
    1DIPC   NC320665   6.953  15.748   2.393  0.0516  0.4352 -0.0776
    1DIPC   PO420666   6.727  15.564   2.456 -0.2709  0.2870  0.0508
    1DIPC   GL120667   6.644  15.667   2.874 -0.1767  0.0373 -0.0553
    1DIPC   GL220668   6.873  15.725   2.981  0.0859 -0.0231  0.0340
    1DIPC   C1A20669   6.534  16.081   3.094  0.0951  0.2241  0.0772
    1DIPC   D2A20670   6.161  16.348   3.162  0.0722 -0.0911 -0.0625
    1DIPC   D3A20671   5.779  16.389   3.226  0.4346  0.1962 -0.0354
    1DIPC   C4A20672   5.688  16.369   3.683  0.1812 -0.0136  0.2965
    1DIPC   C1B20673   7.274  15.972   3.166  0.2030 -0.0973 -0.2257
    1DIPC   D2B20674   7.624  16.106   2.992 -0.0419 -0.5370  0.0624
    1DIPC   D3B20675   7.436  16.425   3.198 -0.3642 -0.0096 -0.5206
    1DIPC   C4B20676   7.570  16.753   3.177 -0.1131 -0.0654 -0.0358
    1DIPC   NC320677  14.434   4.555   3.262  0.0491  0.0288  0.1797
    1DIPC   PO420678  14.571   4.173   3.362  0.2374  0.2401  0.0266
    1DIPC   GL120679  14.409   4.292   3.757  0.1686 -0.4696  0.2799
    1DIPC   GL220680  14.405   4.603   3.839  0.0830 -0.0554 -0.2822
    1DIPC   C1A20681  14.383   4.182   4.147 -0.0635 -0.0838 -0.2025
    1DIPC   D2A20682  14.625   4.334   4.545  0.1287 -0.0552  0.0218
    1DIPC   D3A20683  14.396   3.894   4.716  0.4052  0.0399 -0.0587
    1DIPC   C4A20684  14.435   3.979   5.152 -0.0249  0.2769  0.0843
    1DIPC   C1B20685  14.255   4.706   4.277  0.0405 -0.2021  0.0172
    1DIPC   D2B20686  14.140   4.339   4.550  0.1951 -0.0049  0.2816
    1DIPC   D3B20687  14.297   4.473   4.958 -0.1416 -0.3158 -0.1045
    1DIPC   C4B20688  14.429   4.682   5.413 -0.2488  0.0419  0.0106
    1DIPC   NC320689   8.582  20.389   2.057 -0.1423 -0.1335  0.0559
    1DIPC   PO420690   8.570  20.032   2.269  0.0151  0.4199  0.3876
    1DIPC   GL120691   8.725  20.129   2.704  0.1724  0.1689 -0.0249
    1DIPC   GL220692   8.701  19.821   2.797 -0.1163 -0.0321 -0.1206
    1DIPC   C1A20693   8.736  20.310   3.090 -0.0573 -0.1265  0.0701
    1DIPC   D2A20694   8.969  20.638   3.280 -0.1147  0.0306 -0.1844
    1DIPC   D3A20695   8.824  20.910   3.802 -0.0576 -0.1400 -0.2072
    1DIPC   C4A20696   8.838  21.327   3.835  0.1692  0.1020  0.2611
    1DIPC   C1B20697   8.976  19.892   3.219 -0.2296  0.2289 -0.2579
    1DIPC   D2B20698   9.021  20.112   3.552  0.0399  0.0933  0.0107
    1DIPC   D3B20699   9.558  19.979   3.531  0.2348 -0.1691 -0.0737
    1DIPC   C4B20700   9.704  19.634   3.717  0.0044  0.0966  0.2199
    1DIPC   NC320701  28.363  12.223   2.396 -0.1837 -0.1466  0.0438
    1DIPC   PO420702  28.826  12.174   2.654 -0.1072  0.1358  0.0846
    1DIPC   GL120703  28.910  12.188   2.958  0.0250 -0.0904 -0.0423
    1DIPC   GL220704  28.637  12.145   3.131  0.1669  0.0661 -0.2783
    1DIPC   C1A20705  28.941  12.597   3.194 -0.1137  0.0225  0.1006
    1DIPC   D2A20706  28.578  12.831   3.284  0.0510  0.1595 -0.3040
    1DIPC   D3A20707  28.519  12.925   3.694 -0.1555  0.0247  0.1149
    1DIPC   C4A20708  28.931  13.011   3.896 -0.0768  0.0247  0.0316
    1DIPC   C1B20709  28.776  12.267   3.500 -0.1061 -0.1430  0.4098
    1DIPC   D2B20710  28.859  12.469   3.831  0.2603 -0.1331 -0.2506
    1DIPC   D3B20711  28.681  12.620   4.127 -0.1773 -0.3245  0.0685
    1DIPC   C4B20712  28.192  12.743   4.195  0.1506 -0.0972 -0.1293
    1DIPC   NC320713  24.238  24.637   2.759  0.1864 -0.1083 -0.2793
    1DIPC   PO420714  23.849  24.479   3.006 -0.2303  0.3053  0.1137
    1DIPC   GL120715  23.803  24.612   3.457  0.0949 -0.2124 -0.1222
    1DIPC   GL220716  23.544  24.869   3.502  0.0496  0.0503  0.1213
    1DIPC   C1A20717  23.720  24.770   3.926  0.1699  0.0303 -0.2026
    1DIPC   D2A20718  23.997  24.609   4.280  0.0939 -0.1086 -0.0667
    1DIPC   D3A20719  24.305  24.669   4.451 -0.1336  0.1541  0.2936
    1DIPC   C4A20720  24.736  24.818   4.345 -0.1340 -0.4002  0.1221
    1DIPC   C1B20721  23.016  24.930   3.586 -0.3513  0.0507  0.2447
    1DIPC   D2B20722  22.644  25.179   3.635  0.1753  0.0969  0.1786
    1DIPC   D3B20723  22.816  25.168   4.006  0.1299  0.1031  0.2201
    1DIPC   C4B20724  22.609  25.204   4.412 -0.0679  0.3536 -0.1470
    1DIPC   NC320725   0.852  12.897   2.293  0.0365  0.3922 -0.0281
    1DIPC   PO420726   0.464  13.138   2.178 -0.0548 -0.0774  0.1273
    1DIPC   GL120727   0.573  13.342   2.621 -0.2920  0.0478  0.2116
    1DIPC   GL220728   0.890  13.222   2.701  0.0996 -0.0088  0.0538
    1DIPC   C1A20729   0.400  13.510   3.085 -0.3226  0.1875 -0.2380
    1DIPC   D2A20730   0.414  13.323   3.467  0.0306  0.0987 -0.0049
    1DIPC   D3A20731   0.109  13.597   3.726  0.1188  0.2867  0.0529
    1DIPC   C4A20732  -0.192  13.769   3.626  0.0901 -0.0436 -0.2631
    1DIPC   C1B20733   0.817  13.103   3.099  0.1377 -0.0216  0.3987
    1DIPC   D2B20734   0.638  12.887   3.432  0.0369 -0.1421  0.0895
    1DIPC   D3B20735   0.955  13.208   3.614  0.1251  0.1962  0.0025
    1DIPC   C4B20736   1.266  13.103   3.884  0.1086 -0.2890 -0.0291
    1DIPC   NC320737  27.876   9.117   2.707 -0.1156 -0.1258 -0.0241
    1DIPC   PO420738  27.461   9.322   2.457  0.3230 -0.2207 -0.1791
    1DIPC   GL120739  27.554   9.518   2.890  0.3662  0.2813 -0.1746
    1DIPC   GL220740  27.382   9.445   3.226  0.0423 -0.2132  0.2068
    1DIPC   C1A20741  27.854   9.498   3.187 -0.2366  0.0583 -0.1136
    1DIPC   D2A20742  28.036   9.181   3.463  0.0542 -0.0830  0.1143
    1DIPC   D3A20743  28.560   9.163   3.517 -0.2053  0.1408  0.3017
    1DIPC   C4A20744  28.814   9.267   3.933  0.2740 -0.1698  0.0850
    1DIPC   C1B20745  27.553   9.246   3.582 -0.2248 -0.1061  0.0955
    1DIPC   D2B20746  27.466   9.294   4.010 -0.1704  0.2391 -0.2443
    1DIPC   D3B20747  27.447   9.655   3.829  0.3928 -0.1765  0.1369
    1DIPC   C4B20748  27.138   9.952   3.895 -0.1299 -0.0804  0.1033
    1DIPC   NC320749   0.945   9.825   2.982 -0.0583 -0.2482 -0.0867
    1DIPC   PO420750   1.159   9.883   3.253 -0.3485 -0.0365 -0.1141
    1DIPC   GL120751   1.248   9.812   3.595 -0.0703  0.3127  0.0073
    1DIPC   GL220752   1.368   9.909   3.816 -0.1864  0.2164 -0.2008
    1DIPC   C1A20753   1.404   9.455   3.906 -0.1172  0.1457 -0.0484
    1DIPC   D2A20754   1.739   9.255   4.090  0.2800  0.0577  0.1015
    1DIPC   D3A20755   1.812   9.525   4.469  0.0235  0.0855  0.1448
    1DIPC   C4A20756   1.605   9.395   4.710  0.2300  0.1770 -0.1603
    1DIPC   C1B20757   1.540   9.909   4.213  0.2104  0.2957 -0.0484
    1DIPC   D2B20758   1.741  10.097   4.605  0.0459  0.1943 -0.0225
    1DIPC   D3B20759   2.078   9.743   4.859  0.0425  0.0904 -0.3020
    1DIPC   C4B20760   2.008   9.552   5.209 -0.0177 -0.1637 -0.0355
    1DIPC   NC320761  11.812  28.402   3.211  0.0819 -0.1914 -0.0238
    1DIPC   PO420762  11.695  27.895   3.119  0.0459 -0.1033 -0.0892
    1DIPC   GL120763  11.508  27.848   3.548 -0.2170  0.0752 -0.0582
    1DIPC   GL220764  11.243  27.650   3.650  0.1410 -0.2335 -0.3529
    1DIPC   C1A20765  11.576  28.074   3.927 -0.1185 -0.0082 -0.3182
    1DIPC   D2A20766  11.410  28.155   4.349  0.2777  0.1014  0.0960
    1DIPC   D3A20767  11.582  28.307   4.764 -0.0693  0.2151  0.3714
    1DIPC   C4A20768  11.772  28.680   4.915  0.3285 -0.0307 -0.0799
    1DIPC   C1B20769  11.557  27.573   4.062  0.0293  0.3659  0.0134
    1DIPC   D2B20770  11.779  27.806   4.355  0.0140  0.0778 -0.0721
    1DIPC   D3B20771  11.533  27.588   4.623  0.1219 -0.1220  0.0824
    1DIPC   C4B20772  11.231  27.834   4.741  0.2216  0.0768  0.2820
    1DIPC   NC320773   1.696   9.881   3.309 -0.2473 -0.0026 -0.1242
    1DIPC   PO420774   2.101   9.745   3.200 -0.1232  0.3017  0.3752
    1DIPC   GL120775   2.154  10.056   3.505  0.3216  0.2546  0.0840
    1DIPC   GL220776   1.877  10.129   3.721  0.0521 -0.0300  0.2689
    1DIPC   C1A20777   2.409  10.244   3.765  0.3182  0.1171 -0.0150
    1DIPC   D2A20778   2.669  10.231   4.036  0.2395  0.0619  0.3973
    1DIPC   D3A20779   2.509  10.567   4.208 -0.1578 -0.0934  0.2377
    1DIPC   C4A20780   2.567  10.748   4.622  0.0558 -0.1699  0.2280
    1DIPC   C1B20781   1.931  10.390   4.043 -0.0263  0.0085  0.0802
    1DIPC   D2B20782   2.072  10.590   4.461  0.3899 -0.2949 -0.1161
    1DIPC   D3B20783   1.860  10.582   4.745 -0.0636 -0.1459  0.0777
    1DIPC   C4B20784   1.518  10.846   4.857  0.0205 -0.2538 -0.0735
    1DIPC   NC320785   6.192  25.247   2.533  0.3172 -0.1539  0.0852
    1DIPC   PO420786   6.055  24.831   2.612 -0.1304  0.4096 -0.1393
    1DIPC   GL120787   6.073  24.787   3.012 -0.1915 -0.0226 -0.0819
    1DIPC   GL220788   6.301  24.965   3.098 -0.0620  0.0033  0.1405
    1DIPC   C1A20789   5.920  24.464   3.278 -0.0178  0.0815 -0.1958
    1DIPC   D2A20790   5.502  24.460   3.482  0.1500  0.1160  0.0276
    1DIPC   D3A20791   5.281  24.633   3.824 -0.0675 -0.2693  0.1290
    1DIPC   C4A20792   5.497  24.424   4.178  0.0308 -0.0133 -0.0411
    1DIPC   C1B20793   6.277  25.029   3.505 -0.2214  0.0449  0.1277
    1DIPC   D2B20794   6.382  24.790   3.935 -0.2750 -0.0602 -0.1812
    1DIPC   D3B20795   6.271  25.190   4.154  0.0713  0.0638 -0.0631
    1DIPC   C4B20796   6.395  25.457   4.571 -0.1698 -0.2021  0.0153
    1DIPC   NC320797  11.526  29.603   2.629  0.0991 -0.0563  0.2424
    1DIPC   PO420798  11.386  29.608   3.028 -0.0266  0.0251 -0.2639
    1DIPC   GL120799  11.519  29.833   3.458  0.1290 -0.2166 -0.2623
    1DIPC   GL220800  11.643  30.090   3.524  0.1966  0.1272 -0.1566
    1DIPC   C1A20801  11.215  29.992   3.798  0.1907  0.1778  0.2660
    1DIPC   D2A20802  10.902  29.986   3.756  0.2232 -0.0792 -0.1831
    1DIPC   D3A20803  10.649  30.269   3.558  0.3291  0.3937  0.0248
    1DIPC   C4A20804  10.655  30.714   3.554  0.0751 -0.1853  0.1127
    1DIPC   C1B20805  11.804  29.941   3.869 -0.1028  0.0465 -0.1911
    1DIPC   D2B20806  12.002  29.823   4.168  0.2124  0.3456  0.2440
    1DIPC   D3B20807  11.644  29.755   4.383 -0.1292 -0.1605  0.0209
    1DIPC   C4B20808  11.637  29.626   4.817  0.0010 -0.0376 -0.4907
    1DIPC   NC320809  19.072  21.782   2.994 -0.1341  0.2955  0.1616
    1DIPC   PO420810  19.420  22.136   3.046 -0.0453  0.2931 -0.0221
    1DIPC   GL120811  19.330  22.030   3.461  0.0929  0.3346  0.0470
    1DIPC   GL220812  19.561  22.179   3.704  0.2055  0.3362  0.2279
    1DIPC   C1A20813  19.151  21.742   3.750  0.1057  0.0423  0.3197
    1DIPC   D2A20814  19.032  21.374   4.131  0.0321  0.2207  0.0191
    1DIPC   D3A20815  19.072  21.739   4.372  0.0303 -0.0731  0.0867
    1DIPC   C4A20816  19.352  22.061   4.183 -0.1754 -0.0304 -0.1848
    1DIPC   C1B20817  19.630  21.673   3.761  0.1406  0.2800 -0.0797
    1DIPC   D2B20818  19.886  21.314   3.592  0.0085  0.0470 -0.3632
    1DIPC   D3B20819  19.731  20.808   3.807 -0.0915 -0.1659 -0.2667
    1DIPC   C4B20820  19.561  20.537   3.469 -0.1501 -0.2454 -0.0170
    1DIPC   NC320821  13.373  25.218   2.545 -0.1751 -0.1208  0.3917
    1DIPC   PO420822  13.547  24.900   2.671  0.1870 -0.0313  0.1622
    1DIPC   GL120823  13.421  24.964   3.142 -0.0452  0.3717 -0.1184
    1DIPC   GL220824  13.120  24.901   3.124  0.0271 -0.0257 -0.0468
    1DIPC   C1A20825  13.576  24.661   3.348 -0.0711  0.1291  0.1988
    1DIPC   D2A20826  14.001  24.458   3.555  0.3821  0.1385 -0.0395
    1DIPC   D3A20827  14.008  24.323   3.926 -0.1211 -0.1014  0.1778
    1DIPC   C4A20828  13.738  23.999   4.253  0.2023 -0.0009 -0.1170
    1DIPC   C1B20829  12.944  25.273   3.197 -0.0728  0.2970 -0.1518
    1DIPC   D2B20830  12.937  25.787   3.402  0.0078  0.2075  0.0332
    1DIPC   D3B20831  12.792  26.074   3.700  0.2488 -0.0214 -0.0185
    1DIPC   C4B20832  12.390  26.033   3.823  0.0424 -0.2613 -0.1526
    1DIPC   NC320833   3.011   8.742   3.109 -0.0395 -0.0928  0.1675
    1DIPC   PO420834   3.262   9.067   2.977  0.0096  0.1025 -0.1864
    1DIPC   GL120835   3.284   9.114   3.523 -0.3510  0.1686 -0.1563
    1DIPC   GL220836   3.127   8.832   3.653 -0.3787  0.1508 -0.0023
    1DIPC   C1A20837   3.634   9.379   3.684  0.1473  0.2321 -0.1341
    1DIPC   D2A20838   3.710   9.766   3.527  0.0853 -0.0629 -0.2455
    1DIPC   D3A20839   3.957  10.072   3.881 -0.0909 -0.2170  0.0410
    1DIPC   C4A20840   4.359   9.946   4.082 -0.1061  0.1802 -0.2394
    1DIPC   C1B20841   3.106   8.853   4.042  0.1644 -0.0993  0.0743
    1DIPC   D2B20842   3.354   8.962   4.440 -0.0816  0.0436  0.0961
    1DIPC   D3B20843   3.120   8.835   4.738  0.0495  0.1016  0.0342
    1DIPC   C4B20844   2.787   8.692   4.849 -0.1956  0.1526 -0.0045
    1DIPC   NC320845  15.060   0.104   3.613 -0.2112  0.2948  0.0262
    1DIPC   PO420846  15.070  -0.330   3.685  0.2280 -0.0986 -0.0108
    1DIPC   GL120847  14.924  -0.564   4.036  0.4243 -0.2372  0.2711
    1DIPC   GL220848  14.680  -0.446   4.225 -0.0316  0.0125 -0.0775
    1DIPC   C1A20849  15.194  -0.945   4.005  0.0595  0.1867  0.0957
    1DIPC   D2A20850  15.400  -1.134   4.362  0.1900  0.2274 -0.1058
    1DIPC   D3A20851  15.456  -0.899   4.801  0.2125 -0.1379  0.1402
    1DIPC   C4A20852  15.538  -0.527   4.856 -0.0346  0.1134 -0.3536
    1DIPC   C1B20853  14.795  -0.437   4.656  0.0734  0.3919 -0.1397
    1DIPC   D2B20854  14.704  -0.370   5.007  0.1471  0.1779 -0.0483
    1DIPC   D3B20855  14.889   0.005   5.137 -0.1213  0.2353  0.0778
    1DIPC   C4B20856  14.877   0.370   4.968 -0.3046 -0.0271  0.1471
    1DIPC   NC320857   8.887   2.702   3.582  0.1438 -0.1789 -0.2328
    1DIPC   PO420858   8.482   2.815   3.552 -0.0288  0.0329  0.0187
    1DIPC   GL120859   8.299   3.050   4.026 -0.0525  0.1133  0.0428
    1DIPC   GL220860   8.076   2.909   4.104 -0.0665 -0.0145 -0.0063
    1DIPC   C1A20861   8.255   3.238   4.484 -0.1617  0.1006  0.4661
    1DIPC   D2A20862   7.979   3.148   4.956  0.0716  0.0600 -0.1160
    1DIPC   D3A20863   8.199   3.012   5.348  0.1997 -0.2303 -0.1748
    1DIPC   C4A20864   8.412   3.048   5.815 -0.1032  0.1736 -0.0822
    1DIPC   C1B20865   8.009   2.792   4.410 -0.1161  0.0137 -0.1332
    1DIPC   D2B20866   8.134   2.529   4.799  0.0125 -0.0530  0.0739
    1DIPC   D3B20867   8.361   2.502   5.289 -0.2056  0.1145  0.0433
    1DIPC   C4B20868   8.092   2.183   5.604 -0.1436 -0.1868  0.1284
    1DIPC   NC320869  23.358  21.001   2.894  0.0818 -0.1837  0.0258
    1DIPC   PO420870  22.976  20.892   3.060  0.0935  0.0815  0.1287
    1DIPC   GL120871  22.823  20.913   3.495  0.0381  0.1097 -0.0235
    1DIPC   GL220872  22.574  20.863   3.518  0.0310  0.0447 -0.0733
    1DIPC   C1A20873  23.052  20.648   3.742  0.3576 -0.2643  0.1205
    1DIPC   D2A20874  23.394  20.507   3.822  0.1370 -0.0050 -0.1161
    1DIPC   D3A20875  23.493  20.260   3.989 -0.0927  0.0789  0.1443
    1DIPC   C4A20876  23.364  19.891   3.806  0.1239  0.0764 -0.0533
    1DIPC   C1B20877  22.584  20.486   3.682  0.0616  0.2117 -0.0357
    1DIPC   D2B20878  22.898  20.155   3.711  0.0462  0.0582 -0.2676
    1DIPC   D3B20879  23.058  20.227   4.225 -0.0454 -0.0613 -0.0399
    1DIPC   C4B20880  22.837  19.789   4.581 -0.2338  0.0130  0.0392
    1DIPC   NC320881   4.722   8.206   2.666 -0.1237 -0.0870  0.0120
    1DIPC   PO420882   4.774   8.412   3.137 -0.2944 -0.0826 -0.2091
    1DIPC   GL120883   4.618   8.245   3.496 -0.1280 -0.1323  0.0225
    1DIPC   GL220884   4.280   8.283   3.379 -0.0896 -0.0765  0.0150
    1DIPC   C1A20885   4.406   8.115   3.822 -0.1849 -0.2462 -0.0909
    1DIPC   D2A20886   3.999   8.264   4.007  0.0560  0.0218  0.3312
    1DIPC   D3A20887   4.004   8.570   3.806  0.1438 -0.2971  0.3102
    1DIPC   C4A20888   4.407   8.679   3.737  0.4317  0.2164 -0.0245
    1DIPC   C1B20889   3.990   7.934   3.618  0.1721  0.3599 -0.1243
    1DIPC   D2B20890   3.915   7.537   3.746  0.3185  0.0525 -0.2389
    1DIPC   D3B20891   4.152   7.659   4.206 -0.1222  0.1638 -0.1127
    1DIPC   C4B20892   3.916   7.892   4.522  0.1556 -0.1397 -0.3513
    1DIPC   NC320893  23.099   9.505   2.616  0.2904  0.0572 -0.2926
    1DIPC   PO420894  23.591   9.464   2.796 -0.1778  0.0935  0.2153
    1DIPC   GL120895  23.637   9.438   3.306 -0.1056 -0.0294 -0.2144
    1DIPC   GL220896  23.833   9.264   3.488 -0.3449 -0.2223  0.0693
    1DIPC   C1A20897  23.459   9.766   3.571 -0.2510 -0.2699  0.0683
    1DIPC   D2A20898  23.588   9.950   3.883  0.2066 -0.1227  0.2172
    1DIPC   D3A20899  23.100  10.058   3.991 -0.1273 -0.0628  0.2258
    1DIPC   C4A20900  22.765   9.745   4.092  0.0248  0.2288  0.0400
    1DIPC   C1B20901  23.636   9.296   3.874  0.0923 -0.1956 -0.0984
    1DIPC   D2B20902  23.289   9.548   4.061  0.2907 -0.0391 -0.1780
    1DIPC   D3B20903  23.758   9.673   4.221 -0.1733 -0.0921 -0.0653
    1DIPC   C4B20904  23.925   9.340   4.386 -0.0416 -0.1299 -0.1452
    1DIPC   NC320905  27.106  21.867   2.625 -0.0341  0.3401 -0.0155
    1DIPC   PO420906  27.448  21.480   2.690 -0.0540 -0.0988  0.1110
    1DIPC   GL120907  27.514  21.385   3.094  0.1402 -0.1036  0.1054
    1DIPC   GL220908  27.297  21.386   3.344  0.1348  0.1735  0.0457
    1DIPC   C1A20909  27.767  21.380   3.593 -0.2331 -0.1958  0.1128
    1DIPC   D2A20910  28.189  21.714   3.580  0.2594  0.0433  0.0358
    1DIPC   D3A20911  28.141  21.624   4.071 -0.1316  0.4672  0.1220
    1DIPC   C4A20912  27.916  21.886   4.282  0.2641  0.1271 -0.1106
    1DIPC   C1B20913  27.239  21.455   3.794  0.0891 -0.0986 -0.0436
    1DIPC   D2B20914  27.568  21.531   3.993  0.1869  0.0514  0.0694
    1DIPC   D3B20915  27.326  21.816   4.198 -0.0305  0.0102 -0.0956
    1DIPC   C4B20916  27.526  22.135   4.249 -0.2268 -0.0713 -0.1321
    1DIPC   NC320917  23.240   5.463   3.086  0.1847 -0.1260  0.1287
    1DIPC   PO420918  23.339   5.864   3.180  0.0953 -0.3316  0.0047
    1DIPC   GL120919  23.358   6.001   3.633 -0.0571 -0.0208  0.1104
    1DIPC   GL220920  23.333   6.369   3.711  0.2202 -0.0184 -0.1261
    1DIPC   C1A20921  23.430   5.739   4.008  0.1804 -0.1951  0.0889
    1DIPC   D2A20922  23.170   5.432   4.004 -0.0240  0.2767  0.2115
    1DIPC   D3A20923  23.345   5.441   3.636  0.0960  0.0695  0.3942
    1DIPC   C4A20924  23.904   5.397   3.623 -0.0318  0.0569 -0.1675
    1DIPC   C1B20925  23.421   6.608   4.129  0.2762  0.0159  0.1939
    1DIPC   D2B20926  23.452   6.829   4.598 -0.0431 -0.0141 -0.0716
    1DIPC   D3B20927  23.290   6.415   4.597  0.2406  0.0083 -0.0324
    1DIPC   C4B20928  23.041   6.307   4.249 -0.1563 -0.0850 -0.0203
    1DIPC   NC320929  23.315  23.536   2.394 -0.1209  0.0674 -0.0863
    1DIPC   PO420930  23.059  23.760   2.774 -0.0258  0.3382 -0.3665
    1DIPC   GL120931  23.146  24.052   3.206  0.0725 -0.3148  0.2695
    1DIPC   GL220932  23.045  23.914   3.455 -0.1277 -0.2275 -0.2903
    1DIPC   C1A20933  23.329  24.349   3.433 -0.0377 -0.1999 -0.1397
    1DIPC   D2A20934  23.306  24.574   3.813  0.0211  0.0758  0.0747
    1DIPC   D3A20935  22.921  24.669   4.074 -0.1878  0.1059 -0.1562
    1DIPC   C4A20936  22.918  24.829   4.391  0.0614 -0.2537  0.0908
    1DIPC   C1B20937  23.349  23.866   3.834  0.1203 -0.1096 -0.0175
    1DIPC   D2B20938  23.600  23.819   4.241 -0.1337  0.4282  0.2092
    1DIPC   D3B20939  23.355  23.988   4.523 -0.1598  0.0123 -0.0639
    1DIPC   C4B20940  23.411  24.425   4.612 -0.1993  0.0813  0.0839
    1DIPC   NC320941  24.824   8.949   2.866 -0.1732  0.0169 -0.1912
    1DIPC   PO420942  25.190   9.042   2.710  0.1207 -0.0669 -0.1420
    1DIPC   GL120943  25.560   8.870   2.908  0.0298 -0.2891  0.1824
    1DIPC   GL220944  25.643   9.252   3.008 -0.2869 -0.0584  0.0737
    1DIPC   C1A20945  25.626   8.708   3.293  0.0369 -0.1623  0.1833
    1DIPC   D2A20946  25.752   8.731   3.725 -0.2026  0.2674  0.4605
    1DIPC   D3A20947  25.494   8.621   4.075  0.2451  0.0704  0.1364
    1DIPC   C4A20948  25.001   8.930   4.173  0.1673 -0.1899 -0.1450
    1DIPC   C1B20949  25.754   9.143   3.426 -0.2324 -0.0630 -0.0095
    1DIPC   D2B20950  26.156   9.319   3.664  0.0238 -0.0810  0.1664
    1DIPC   D3B20951  25.877   9.135   3.949 -0.0120 -0.0667  0.0609
    1DIPC   C4B20952  25.493   9.194   4.133  0.0974 -0.3500  0.2062
    1DIPC   NC320953   9.161  28.143   3.287 -0.0659  0.2476 -0.0230
    1DIPC   PO420954   9.524  27.933   3.154 -0.0536  0.1786 -0.1005
    1DIPC   GL120955   9.509  27.972   3.611  0.1784  0.1257 -0.3568
    1DIPC   GL220956   9.266  27.948   3.766 -0.2181 -0.0330 -0.1003
    1DIPC   C1A20957   9.637  27.682   4.036  0.2300  0.0409  0.0239
    1DIPC   D2A20958   9.757  27.535   4.427  0.3431 -0.1037 -0.1686
    1DIPC   D3A20959   9.525  27.588   4.823 -0.0780 -0.2723 -0.4312
    1DIPC   C4A20960   9.571  27.763   5.295 -0.1388 -0.0285  0.1059
    1DIPC   C1B20961   9.081  28.412   3.902  0.1109 -0.1453 -0.0545
    1DIPC   D2B20962   8.906  28.766   3.944 -0.0519  0.0759  0.0628
    1DIPC   D3B20963   8.412  28.908   3.932 -0.0021  0.0267  0.0215
    1DIPC   C4B20964   8.289  28.876   4.266 -0.4045  0.1786 -0.1608
    1DIPC   NC320965  28.170  26.466   2.711 -0.1922 -0.0807 -0.2812
    1DIPC   PO420966  27.744  26.273   2.775 -0.1431  0.5432 -0.1360
    1DIPC   GL120967  27.885  26.413   3.140  0.0889  0.0566 -0.0334
    1DIPC   GL220968  28.297  26.334   3.205  0.2602 -0.1364  0.1745
    1DIPC   C1A20969  27.767  26.620   3.523 -0.2131  0.0105  0.1700
    1DIPC   D2A20970  27.787  26.780   3.980 -0.0212 -0.0408  0.2003
    1DIPC   D3A20971  28.223  26.672   3.949  0.1096 -0.0679 -0.2314
    1DIPC   C4A20972  28.447  26.387   3.698  0.0945  0.1351 -0.1320
    1DIPC   C1B20973  28.207  25.951   3.397  0.0873 -0.0797 -0.1352
    1DIPC   D2B20974  28.110  25.677   3.781  0.0177  0.1083  0.0119
    1DIPC   D3B20975  28.439  25.944   3.956 -0.0825  0.0851 -0.0709
    1DIPC   C4B20976  28.753  25.988   3.662  0.0546  0.0794 -0.2212
    1DIPC   NC320977   9.149  26.095   1.975  0.1246 -0.1039 -0.0270
    1DIPC   PO420978   9.227  26.312   2.367  0.1013  0.1096 -0.0947
    1DIPC   GL120979   9.083  26.132   2.773  0.2554  0.0545  0.1700
    1DIPC   GL220980   8.835  26.124   2.964 -0.0135  0.0314 -0.2220
    1DIPC   C1A20981   9.316  26.297   3.153  0.0222  0.1813 -0.1501
    1DIPC   D2A20982   9.436  26.342   3.587  0.1972 -0.0309 -0.0843
    1DIPC   D3A20983   9.413  26.074   3.985  0.0308 -0.0268 -0.3320
    1DIPC   C4A20984   9.751  25.911   4.257  0.0284  0.1694  0.1492
    1DIPC   C1B20985   8.797  26.252   3.356 -0.2257 -0.2463  0.2788
    1DIPC   D2B20986   9.000  26.207   3.823  0.0850 -0.0402  0.0832
    1DIPC   D3B20987   9.152  25.902   3.488  0.0367 -0.0734 -0.1784
    1DIPC   C4B20988   9.576  25.879   3.345 -0.2203 -0.4825  0.3253
    1DIPC   NC320989   2.318  16.728   2.219 -0.0238 -0.0891 -0.1902
    1DIPC   PO420990   2.403  17.163   2.194 -0.1595  0.1349 -0.1091
    1DIPC   GL120991   2.156  17.137   2.546 -0.1046  0.1309  0.1236
    1DIPC   GL220992   1.984  16.896   2.646 -0.4180  0.0654 -0.4314
    1DIPC   C1A20993   2.194  17.268   3.006 -0.0094  0.2000 -0.1106
    1DIPC   D2A20994   2.500  17.546   3.254  0.0715 -0.0530 -0.1427
    1DIPC   D3A20995   2.025  17.710   3.343  0.2370  0.0876  0.3863
    1DIPC   C4A20996   1.851  17.475   3.482  0.0461 -0.2140 -0.3057
    1DIPC   C1B20997   2.220  16.752   3.010 -0.0313 -0.2218  0.3613
    1DIPC   D2B20998   2.299  16.553   3.392 -0.1115 -0.1736  0.1202
    1DIPC   D3B20999   2.241  16.461   3.837 -0.2534 -0.2108 -0.2360
    1DIPC   C4B21000   2.515  16.575   4.203 -0.0068 -0.2252  0.2286
    1DIPC   NC321001  24.432   7.797   2.528 -0.0124 -0.0671 -0.2596
    1DIPC   PO421002  24.414   7.764   3.030 -0.2193 -0.0986 -0.0751
    1DIPC   GL121003  24.602   7.824   3.404  0.1510 -0.2023  0.3436
    1DIPC   GL221004  24.819   8.043   3.328  0.1182  0.0667  0.4132
    1DIPC   C1A21005  24.917   7.589   3.624 -0.2082 -0.0785  0.3985
    1DIPC   D2A21006  25.116   7.171   3.738 -0.3184 -0.1925 -0.0676
    1DIPC   D3A21007  24.686   7.192   3.944  0.2430 -0.1430  0.0215
    1DIPC   C4A21008  24.446   7.527   3.758  0.2951  0.0581 -0.0863
    1DIPC   C1B21009  25.015   8.127   3.695 -0.1464  0.1112 -0.2013
    1DIPC   D2B21010  25.081   8.496   3.803 -0.2577  0.2059 -0.2892
    1DIPC   D3B21011  24.966   8.360   4.210  0.0490 -0.0489 -0.0723
    1DIPC   C4B21012  24.973   8.205   4.622 -0.0909  0.0425  0.0125
    1DIPC   NC321013  24.665  29.317   3.491  0.1217 -0.3187 -0.0509
    1DIPC   PO421014  24.575  28.952   3.264  0.2712  0.3103  0.2778
    1DIPC   GL121015  24.584  28.841   3.716 -0.2345 -0.0802 -0.2949
    1DIPC   GL221016  24.505  29.161   3.990  0.2090 -0.2602 -0.0552
    1DIPC   C1A21017  24.613  28.637   4.072 -0.0805 -0.1396 -0.1105
    1DIPC   D2A21018  24.705  28.594   4.427  0.1717  0.1682 -0.3944
    1DIPC   D3A21019  24.834  28.482   4.779 -0.1253  0.0554  0.1891
    1DIPC   C4A21020  25.315  28.554   4.900  0.1453 -0.3089 -0.3566
    1DIPC   C1B21021  24.640  29.112   4.369 -0.0474  0.1465 -0.3355
    1DIPC   D2B21022  25.021  28.932   4.601  0.1879 -0.1661  0.0218
    1DIPC   D3B21023  24.967  28.903   5.062  0.0505 -0.7434 -0.2275
    1DIPC   C4B21024  25.070  29.283   5.364  0.0262  0.1436 -0.3717
    1DIPC   NC321025   9.230  20.894   2.186 -0.0590  0.3191  0.1342
    1DIPC   PO421026   8.855  20.838   2.043  0.0010  0.0216  0.2021
    1DIPC   GL121027   8.801  20.803   2.448 -0.3637  0.2131 -0.1790
    1DIPC   GL221028   8.586  20.610   2.563 -0.0782  0.0534  0.2231
    1DIPC   C1A21029   8.815  20.937   2.928 -0.1010 -0.2347  0.0969
    1DIPC   D2A21030   8.857  21.195   3.293 -0.0683 -0.4145  0.0119
    1DIPC   D3A21031   8.670  21.607   3.406 -0.0604  0.1091 -0.2819
    1DIPC   C4A21032   8.902  21.794   3.637  0.0083 -0.2406 -0.2565
    1DIPC   C1B21033   8.366  20.760   2.985 -0.0402  0.1001 -0.3320
    1DIPC   D2B21034   8.460  20.789   3.413 -0.0013 -0.0320 -0.3523
    1DIPC   D3B21035   8.623  20.460   3.772  0.0785  0.2245 -0.0674
    1DIPC   C4B21036   8.649  20.519   4.234 -0.0908 -0.0743  0.2791
    1DIPC   NC321037   3.662  19.572   2.023  0.0693 -0.2173 -0.3261
    1DIPC   PO421038   4.195  19.476   2.019  0.1736 -0.0573 -0.0372
    1DIPC   GL121039   4.340  19.482   2.456  0.0817 -0.3951  0.0444
    1DIPC   GL221040   4.486  19.682   2.576  0.2482  0.1537 -0.0098
    1DIPC   C1A21041   4.551  19.196   2.836 -0.2236 -0.0679 -0.1068
    1DIPC   D2A21042   4.715  19.003   3.110  0.2807  0.1774  0.1735
    1DIPC   D3A21043   4.713  18.756   2.761 -0.2422 -0.3109  0.4579
    1DIPC   C4A21044   4.427  18.532   2.613 -0.0353  0.2308  0.2680
    1DIPC   C1B21045   4.766  19.850   2.787 -0.3004  0.2522  0.1030
    1DIPC   D2B21046   4.886  19.921   3.234  0.0581  0.0479  0.4130
    1DIPC   D3B21047   5.068  20.160   3.481  0.0675  0.0540  0.0150
    1DIPC   C4B21048   5.612  20.215   3.604 -0.2483 -0.1206 -0.0720
    1DIPC   NC321049   3.427  12.358   2.588 -0.0781 -0.1350 -0.0608
    1DIPC   PO421050   3.151  11.921   2.696 -0.0845 -0.2642  0.1496
    1DIPC   GL121051   3.105  12.087   3.030 -0.0429  0.1580  0.1095
    1DIPC   GL221052   2.894  11.873   3.333 -0.0485 -0.0345  0.0542
    1DIPC   C1A21053   3.311  12.141   3.471  0.1857 -0.0337 -0.2662
    1DIPC   D2A21054   3.243  12.201   3.886 -0.0348  0.1887 -0.0337
    1DIPC   D3A21055   3.382  12.528   3.968 -0.1175 -0.2545  0.0768
    1DIPC   C4A21056   3.628  12.910   4.183  0.0312 -0.0648 -0.0470
    1DIPC   C1B21057   2.577  11.915   3.553  0.2602  0.2885 -0.2259
    1DIPC   D2B21058   2.302  12.170   3.867 -0.0652  0.0590 -0.1801
    1DIPC   D3B21059   2.249  12.587   4.006  0.0764 -0.0845 -0.1723
    1DIPC   C4B21060   2.500  12.837   4.207 -0.0384 -0.0128 -0.1371
    1DIPC   NC321061   2.294  11.090   2.950 -0.0766  0.1513 -0.1532
    1DIPC   PO421062   2.277  11.488   2.815  0.0295  0.0594 -0.0112
    1DIPC   GL121063   2.049  11.449   3.261  0.0211  0.0948  0.0295
    1DIPC   GL221064   1.674  11.395   3.359  0.1056  0.1324  0.0371
    1DIPC   C1A21065   2.078  11.695   3.567  0.1963 -0.2827  0.0289
    1DIPC   D2A21066   1.955  11.887   3.907  0.0765 -0.0250  0.1748
    1DIPC   D3A21067   1.945  12.257   4.315 -0.0189  0.0849 -0.5730
    1DIPC   C4A21068   1.462  12.242   4.507  0.0180 -0.0026  0.1861
    1DIPC   C1B21069   1.649  11.477   3.755  0.1813  0.3317 -0.0094
    1DIPC   D2B21070   1.527  11.601   4.257 -0.4546  0.1546 -0.0097
    1DIPC   D3B21071   1.760  11.812   4.635  0.3678 -0.0085  0.1423
    1DIPC   C4B21072   1.873  12.205   4.786  0.0133  0.1011  0.0716
    1DIPC   NC321073  23.569   1.819   3.437  0.0927 -0.0598  0.2167
    1DIPC   PO421074  23.689   2.212   3.231  0.0451  0.0897 -0.1122
    1DIPC   GL121075  23.566   2.295   3.649  0.0007 -0.1439 -0.2176
    1DIPC   GL221076  23.745   1.998   3.858 -0.0945  0.1411 -0.0976
    1DIPC   C1A21077  23.638   2.435   4.102 -0.0192 -0.4866 -0.0065
    1DIPC   D2A21078  23.777   2.775   4.454  0.1905  0.0217 -0.3396
    1DIPC   D3A21079  23.664   2.469   4.677  0.0829 -0.0437  0.1110
    1DIPC   C4A21080  23.666   2.477   5.106 -0.1641  0.1128  0.0481
    1DIPC   C1B21081  23.414   1.898   4.112  0.1647  0.0914  0.0274
    1DIPC   D2B21082  23.437   1.697   4.536 -0.1075 -0.1451 -0.0238
    1DIPC   D3B21083  23.480   1.203   4.590  0.1095  0.0753 -0.0314
    1DIPC   C4B21084  23.234   0.956   4.248  0.2562 -0.0181 -0.2202
    1DIPC   NC321085   6.984  12.926   2.698  0.5618 -0.0914 -0.0327
    1DIPC   PO421086   6.857  13.288   3.015 -0.1501  0.1352 -0.1471
    1DIPC   GL121087   6.681  13.128   3.437 -0.1262  0.1343  0.1450
    1DIPC   GL221088   7.013  13.224   3.579 -0.1323  0.1882  0.2101
    1DIPC   C1A21089   6.292  13.089   3.749 -0.1654 -0.2605  0.0956
    1DIPC   D2A21090   5.859  12.825   3.997  0.0886 -0.0220  0.0475
    1DIPC   D3A21091   5.785  12.834   3.586 -0.1420 -0.1195 -0.1120
    1DIPC   C4A21092   5.524  12.682   3.278 -0.0572 -0.2527 -0.1510
    1DIPC   C1B21093   6.717  13.335   3.931  0.2284  0.2725  0.2427
    1DIPC   D2B21094   6.496  13.259   4.252 -0.1122  0.0850  0.1611
    1DIPC   D3B21095   6.782  13.600   4.497 -0.2425  0.2478 -0.0307
    1DIPC   C4B21096   7.121  13.442   4.729 -0.3115  0.3614 -0.0882
    1DIPC   NC321097   2.929  22.150   1.947 -0.4071 -0.0837 -0.2141
    1DIPC   PO421098   3.219  22.441   2.183 -0.4409 -0.3469  0.4006
    1DIPC   GL121099   3.068  22.163   2.481  0.1392  0.0452 -0.1561
    1DIPC   GL221100   3.304  22.242   2.804  0.0620 -0.2109  0.3400
    1DIPC   C1A21101   2.777  22.165   2.868 -0.2054  0.1949 -0.0898
    1DIPC   D2A21102   2.732  22.305   3.274 -0.2530 -0.2719 -0.1076
    1DIPC   D3A21103   3.151  22.065   3.232 -0.3820  0.1505  0.3803
    1DIPC   C4A21104   3.533  21.851   3.575  0.3057 -0.4332 -0.0944
    1DIPC   C1B21105   3.651  22.315   3.194  0.1923  0.0834  0.3170
    1DIPC   D2B21106   4.097  22.390   3.225  0.0831 -0.1862  0.0314
    1DIPC   D3B21107   4.388  22.541   3.582 -0.1957 -0.1013  0.0147
    1DIPC   C4B21108   4.380  22.613   4.018  0.0342  0.4374 -0.1978
    1DIPC   NC321109  29.336  24.428   2.260  0.0033  0.1328  0.0796
    1DIPC   PO421110  29.698  24.602   2.591 -0.0783 -0.0211  0.0106
    1DIPC   GL121111  29.891  24.880   2.789 -0.1729 -0.2969 -0.0043
    1DIPC   GL221112  30.164  24.770   2.870  0.3981 -0.2471 -0.3410
    1DIPC   C1A21113  30.162  25.263   2.839 -0.0125 -0.2755  0.1897
    1DIPC   D2A21114  30.484  25.511   2.876  0.1776 -0.1355  0.1425
    1DIPC   D3A21115  30.394  25.802   3.154  0.0072 -0.1353 -0.1379
    1DIPC   C4A21116  30.180  25.926   3.505 -0.0680  0.0574  0.1785
    1DIPC   C1B21117  30.332  24.543   3.218 -0.1531  0.0464 -0.0665
    1DIPC   D2B21118  30.465  24.278   3.564 -0.0506 -0.3640 -0.0646
    1DIPC   D3B21119  30.581  24.551   3.941 -0.2067 -0.1071 -0.1791
    1DIPC   C4B21120  30.375  24.378   4.280 -0.1830  0.3136 -0.1189
    1DIPC   NC321121  23.961  11.361   2.359 -0.0567  0.0826  0.0959
    1DIPC   PO421122  23.946  11.773   2.573  0.4002 -0.0841 -0.2190
    1DIPC   GL121123  24.247  11.966   2.878  0.0265 -0.0523 -0.2164
    1DIPC   GL221124  24.650  11.870   2.786  0.3070 -0.1880  0.0763
    1DIPC   C1A21125  24.364  11.829   3.314  0.1706 -0.2479  0.1332
    1DIPC   D2A21126  24.468  11.834   3.720  0.1962  0.0863  0.4082
    1DIPC   D3A21127  24.297  11.889   4.084 -0.1192 -0.1375  0.1266
    1DIPC   C4A21128  24.439  11.599   4.416 -0.2335  0.2307 -0.3945
    1DIPC   C1B21129  24.894  11.975   3.154  0.1509  0.1553  0.1372
    1DIPC   D2B21130  25.057  12.465   3.251 -0.0768  0.0033  0.0809
    1DIPC   D3B21131  25.164  12.307   3.669  0.2979  0.1730 -0.1088
    1DIPC   C4B21132  24.943  12.490   3.910 -0.2445  0.2697 -0.2183
    1DIPC   NC321133   7.836   0.303   3.275  0.0095  0.1417  0.0302
    1DIPC   PO421134   7.945   0.763   3.221 -0.0140  0.0248 -0.0401
    1DIPC   GL121135   7.794   0.673   3.677 -0.0268 -0.0240 -0.2032
    1DIPC   GL221136   7.435   0.932   3.765  0.3053  0.1444  0.2624
    1DIPC   C1A21137   7.655   0.610   4.139  0.0945  0.0529  0.1157
    1DIPC   D2A21138   7.701   0.484   4.691 -0.1073  0.2508 -0.3177
    1DIPC   D3A21139   7.801   0.211   4.996  0.4525  0.0388 -0.2649
    1DIPC   C4A21140   7.777  -0.062   5.329 -0.1715 -0.2435 -0.0865
    1DIPC   C1B21141   7.413   0.998   4.198 -0.0581 -0.1325 -0.0823
    1DIPC   D2B21142   7.461   0.980   4.586  0.0066 -0.0693 -0.1001
    1DIPC   D3B21143   7.543   1.432   4.595  0.0292 -0.2686  0.2219
    1DIPC   C4B21144   7.841   1.546   4.353 -0.0531  0.2603 -0.2362
    1DIPC   NC321145  20.860   6.490   2.665 -0.0871 -0.0631  0.0425
    1DIPC   PO421146  20.644   6.051   2.826 -0.0619  0.2982  0.0947
    1DIPC   GL121147  20.652   6.305   3.190  0.1718  0.1297  0.0019
    1DIPC   GL221148  20.605   6.606   3.062  0.2715  0.0156 -0.0821
    1DIPC   C1A21149  20.561   6.383   3.569  0.0247  0.1731  0.3393
    1DIPC   D2A21150  20.528   6.244   4.021  0.2991  0.0271  0.1543
    1DIPC   D3A21151  20.425   6.545   4.316  0.0120 -0.0197  0.0436
    1DIPC   C4A21152  20.103   6.865   4.276  0.1245  0.4432  0.3291
    1DIPC   C1B21153  20.604   7.066   3.370  0.4060 -0.0690 -0.0348
    1DIPC   D2B21154  20.707   7.485   3.599 -0.1386 -0.1090  0.0478
    1DIPC   D3B21155  20.467   7.199   3.880 -0.1109  0.0222 -0.3366
    1DIPC   C4B21156  20.088   7.057   3.739  0.1162 -0.2470 -0.1393
    1DIPC   NC321157   7.456  26.594   2.738  0.0876 -0.2037 -0.0966
    1DIPC   PO421158   7.899  26.427   2.768  0.0193  0.1586  0.0950
    1DIPC   GL121159   7.819  26.668   3.140  0.2540  0.0181 -0.3287
    1DIPC   GL221160   7.580  26.884   3.108  0.0540  0.1126 -0.0774
    1DIPC   C1A21161   7.807  26.632   3.549  0.0001  0.0947 -0.1218
    1DIPC   D2A21162   7.687  26.381   3.805  0.2496 -0.0993  0.0620
    1DIPC   D3A21163   7.760  26.685   4.122 -0.1546  0.1936 -0.1355
    1DIPC   C4A21164   7.565  27.031   4.176 -0.2956 -0.0848 -0.1608
    1DIPC   C1B21165   7.318  26.889   3.455  0.0974  0.1154  0.1208
    1DIPC   D2B21166   7.271  26.680   3.817  0.0815 -0.0299  0.2603
    1DIPC   D3B21167   7.033  26.741   4.124  0.1461 -0.0712 -0.1356
    1DIPC   C4B21168   7.109  26.763   4.530  0.3994  0.0035  0.2272
    1DIPC   NC321169   2.362   9.334   3.270  0.0792  0.0045  0.2213
    1DIPC   PO421170   2.171   8.932   3.117  0.4778  0.1783 -0.2179
    1DIPC   GL121171   2.173   8.991   3.602  0.3439  0.0184  0.0075
    1DIPC   GL221172   2.138   9.261   3.710  0.0414  0.0519 -0.3577
    1DIPC   C1A21173   2.062   8.871   3.968  0.2187 -0.1463 -0.2776
    1DIPC   D2A21174   2.071   8.994   4.430 -0.1105 -0.0308 -0.1654
    1DIPC   D3A21175   1.618   8.883   4.510 -0.1504 -0.0505  0.0171
    1DIPC   C4A21176   1.574   8.801   4.992 -0.1454 -0.0330 -0.0933
    1DIPC   C1B21177   2.302   9.278   4.082  0.2588  0.0583  0.0700
    1DIPC   D2B21178   2.302   9.425   4.528  0.0218  0.3756  0.0499
    1DIPC   D3B21179   2.603   9.144   4.610  0.3678 -0.0306  0.2552
    1DIPC   C4B21180   2.991   9.286   4.403  0.0348  0.1992  0.0076
    1DIPC   NC321181   7.717  23.767   2.198 -0.0710  0.0054 -0.1655
    1DIPC   PO421182   7.278  23.928   2.384 -0.0869  0.1454  0.0367
    1DIPC   GL121183   7.563  23.968   2.735  0.3025  0.0554 -0.1756
    1DIPC   GL221184   7.448  24.265   2.764 -0.3888  0.0589  0.1613
    1DIPC   C1A21185   7.872  24.107   2.942  0.0638 -0.2334 -0.1597
    1DIPC   D2A21186   7.974  24.099   3.318  0.3163  0.2617 -0.2815
    1DIPC   D3A21187   7.741  23.727   3.504 -0.2795 -0.1724 -0.0813
    1DIPC   C4A21188   8.005  23.441   3.564 -0.3153  0.3293 -0.0982
    1DIPC   C1B21189   7.278  24.466   3.109  0.0250  0.3988 -0.0014
    1DIPC   D2B21190   7.227  24.652   3.544 -0.0221  0.0567  0.0546
    1DIPC   D3B21191   7.523  24.477   3.525  0.0145  0.0913 -0.3319
    1DIPC   C4B21192   7.457  24.066   3.284  0.2588 -0.2143  0.1355
    1DIPC   NC321193   5.512  13.384   2.793  0.0778 -0.0923 -0.2017
    1DIPC   PO421194   5.105  13.672   2.810 -0.2183 -0.0692  0.1009
    1DIPC   GL121195   4.741  13.818   2.994  0.0919 -0.3304 -0.0803
    1DIPC   GL221196   4.828  13.902   3.366  0.2954 -0.1472  0.1181
    1DIPC   C1A21197   4.330  14.032   3.140 -0.1673  0.0274 -0.0245
    1DIPC   D2A21198   4.077  14.414   2.969  0.1808 -0.1144 -0.1009
    1DIPC   D3A21199   3.779  14.100   2.884  0.0372 -0.2765  0.1794
    1DIPC   C4A21200   3.906  13.702   2.974  0.0849 -0.2986 -0.1748
    1DIPC   C1B21201   4.807  13.929   3.788  0.1693 -0.1141  0.2059
    1DIPC   D2B21202   4.560  13.761   4.112 -0.0971 -0.1553  0.1857
    1DIPC   D3B21203   4.281  13.557   4.379 -0.0657  0.2904 -0.1039
    1DIPC   C4B21204   3.813  13.428   4.341 -0.3088 -0.3259 -0.1234
    1DIPC   NC321205  18.787  29.531   3.222  0.1499  0.1195 -0.0026
    1DIPC   PO421206  18.810  29.230   3.399  0.1248 -0.2097 -0.1105
    1DIPC   GL121207  18.507  29.196   3.732 -0.3365 -0.0753 -0.2446
    1DIPC   GL221208  18.392  29.327   3.983 -0.0149 -0.1227 -0.3138
    1DIPC   C1A21209  18.690  28.997   4.075  0.2865 -0.0843  0.0707
    1DIPC   D2A21210  18.791  29.037   4.581 -0.0837  0.2007  0.3565
    1DIPC   D3A21211  18.736  29.493   4.668 -0.2596  0.1757 -0.4084
    1DIPC   C4A21212  18.475  29.722   4.424 -0.0819 -0.0192  0.0811
    1DIPC   C1B21213  18.129  29.205   4.395  0.0626  0.1101 -0.1159
    1DIPC   D2B21214  18.290  29.095   4.812  0.1582 -0.0560  0.0063
    1DIPC   D3B21215  18.598  29.161   5.072 -0.0470  0.1214  0.0058
    1DIPC   C4B21216  18.861  28.827   5.148 -0.1816  0.1837  0.2316
    1DIPC   NC321217  14.348  24.605   2.930  0.2291 -0.1149 -0.0518
    1DIPC   PO421218  14.015  24.220   2.761 -0.0148  0.1300  0.1149
    1DIPC   GL121219  13.862  24.168   3.152  0.1237 -0.1334 -0.2895
    1DIPC   GL221220  13.520  24.014   3.139  0.0796  0.0608  0.1604
    1DIPC   C1A21221  13.801  23.978   3.661 -0.2756 -0.0400  0.2864
    1DIPC   D2A21222  13.956  23.729   3.893 -0.2529 -0.2273  0.1896
    1DIPC   D3A21223  13.767  23.345   4.104 -0.0701 -0.2384 -0.0953
    1DIPC   C4A21224  13.379  23.165   4.132 -0.1672  0.0132  0.0543
    1DIPC   C1B21225  13.406  24.242   3.470  0.0105 -0.0699  0.0820
    1DIPC   D2B21226  13.525  24.234   3.900  0.0057  0.2524  0.1989
    1DIPC   D3B21227  13.113  24.090   3.813  0.1499  0.1523  0.1071
    1DIPC   C4B21228  12.715  24.148   4.002  0.1283  0.2986 -0.0222
    1DIPC   NC321229  10.440   3.482   3.856  0.1311  0.0785 -0.1318
    1DIPC   PO421230  10.110   3.646   4.138 -0.0584 -0.0507 -0.0069
    1DIPC   GL121231  10.149   3.770   4.612  0.1891 -0.0328  0.1955
    1DIPC   GL221232  10.208   4.069   4.608 -0.2885  0.0157 -0.1596
    1DIPC   C1A21233   9.956   3.511   4.922 -0.1766 -0.0900 -0.0056
    1DIPC   D2A21234   9.859   3.696   5.271 -0.0307  0.1938  0.2747
    1DIPC   D3A21235   9.807   3.221   5.313  0.0086  0.1638 -0.3132
    1DIPC   C4A21236  10.076   2.858   5.444 -0.4063 -0.1032 -0.1591
    1DIPC   C1B21237  10.394   4.019   4.984  0.2634  0.0439 -0.0955
    1DIPC   D2B21238  10.461   3.809   5.411  0.0177 -0.0889 -0.1233
    1DIPC   D3B21239  10.349   3.419   5.276 -0.2497 -0.2057 -0.0946
    1DIPC   C4B21240  10.429   3.352   4.842 -0.0331 -0.1131 -0.1092
    1DIPC   NC321241   7.978  15.230   1.573  0.0349  0.0146 -0.2393
    1DIPC   PO421242   8.050  15.488   1.884 -0.1398 -0.3819 -0.1037
    1DIPC   GL121243   8.147  15.573   2.329 -0.1856 -0.0850 -0.0669
    1DIPC   GL221244   7.991  15.679   2.598 -0.0788 -0.2711 -0.0132
    1DIPC   C1A21245   8.459  15.704   2.709 -0.1268 -0.0504 -0.4046
    1DIPC   D2A21246   8.722  15.953   2.902  0.2872 -0.0347 -0.1265
    1DIPC   D3A21247   8.503  15.641   3.189 -0.1061 -0.0621 -0.2563
    1DIPC   C4A21248   8.192  15.399   3.335 -0.2792 -0.3485  0.2207
    1DIPC   C1B21249   8.032  15.747   3.022  0.0043 -0.2628  0.0348
    1DIPC   D2B21250   8.027  15.903   3.488  0.3436  0.1792 -0.1475
    1DIPC   D3B21251   8.360  15.690   3.698 -0.0393  0.0957 -0.1319
    1DIPC   C4B21252   8.314  15.667   4.187 -0.2048 -0.0568 -0.0770
    1DIPC   NC321253   1.326  22.763   2.341 -0.0520 -0.0555  0.0336
    1DIPC   PO421254   1.779  22.604   2.302  0.1956  0.0137  0.2854
    1DIPC   GL121255   2.162  22.543   2.618 -0.0940  0.1163  0.2725
    1DIPC   GL221256   2.249  22.310   2.665 -0.0016 -0.2139  0.2390
    1DIPC   C1A21257   2.452  22.625   3.039 -0.0822 -0.2551  0.2405
    1DIPC   D2A21258   2.654  22.793   3.375  0.0117 -0.0443  0.5008
    1DIPC   D3A21259   2.881  22.849   3.732  0.0386  0.1776 -0.3077
    1DIPC   C4A21260   3.325  22.848   3.718  0.3433 -0.1661  0.2173
    1DIPC   C1B21261   2.275  22.160   3.104  0.1427  0.1158  0.4109
    1DIPC   D2B21262   1.966  22.029   3.449  0.1722 -0.0592 -0.2198
    1DIPC   D3B21263   1.696  21.749   3.757  0.0445 -0.0170  0.0289
    1DIPC   C4B21264   1.477  21.335   3.735  0.0532 -0.1674 -0.0878
    1DIPC   NC321265   5.282  16.901   2.161  0.0955  0.1377  0.0445
    1DIPC   PO421266   5.545  17.306   2.464  0.2868  0.1668  0.0870
    1DIPC   GL121267   5.385  17.469   2.839 -0.1676 -0.3509 -0.0364
    1DIPC   GL221268   5.633  17.501   3.076 -0.0794 -0.1215 -0.0864
    1DIPC   C1A21269   4.994  17.518   2.900 -0.1026 -0.2895 -0.2743
    1DIPC   D2A21270   4.644  17.790   2.988  0.0204  0.0760  0.2078
    1DIPC   D3A21271   4.723  18.001   3.345 -0.3531  0.0116  0.1223
    1DIPC   C4A21272   4.955  17.851   3.592  0.0920  0.0436 -0.0049
    1DIPC   C1B21273   5.362  17.873   3.289  0.0986 -0.2407  0.1213
    1DIPC   D2B21274   5.289  18.225   3.595  0.3122 -0.0887 -0.1850
    1DIPC   D3B21275   5.419  17.870   3.881 -0.1362 -0.3274 -0.2093
    1DIPC   C4B21276   5.519  17.555   3.602  0.0944 -0.0584 -0.1333
    1DIPC   NC321277   6.117  26.072   2.355 -0.1730  0.1797  0.1469
    1DIPC   PO421278   5.882  25.675   2.557 -0.0966  0.0473 -0.1992
    1DIPC   GL121279   5.662  25.713   2.963  0.1406  0.2640  0.0609
    1DIPC   GL221280   5.338  25.903   3.083 -0.0848 -0.1404 -0.2805
    1DIPC   C1A21281   5.646  25.543   3.386 -0.0287 -0.2155 -0.1517
    1DIPC   D2A21282   5.471  25.234   3.712  0.0860 -0.1512  0.3131
    1DIPC   D3A21283   5.651  25.435   4.127  0.0640 -0.0116 -0.2560
    1DIPC   C4A21284   5.877  25.200   4.446  0.3083  0.1868  0.0283
    1DIPC   C1B21285   4.925  25.915   3.218 -0.0890 -0.0739  0.3369
    1DIPC   D2B21286   4.623  26.124   3.423 -0.1603 -0.1684  0.0394
    1DIPC   D3B21287   4.383  26.133   3.853  0.0502  0.1394  0.3770
    1DIPC   C4B21288   4.551  26.434   4.182  0.1417 -0.1805  0.1579
    1DIPC   NC321289   6.225   7.006   3.414  0.0214 -0.1640 -0.1010
    1DIPC   PO421290   6.023   7.302   3.590 -0.1049  0.1012 -0.3725
    1DIPC   GL121291   6.190   7.401   3.894 -0.1934 -0.3073 -0.0482
    1DIPC   GL221292   6.536   7.266   3.982  0.1949  0.2793 -0.0095
    1DIPC   C1A21293   6.106   7.288   4.301 -0.1551  0.1227 -0.2165
    1DIPC   D2A21294   6.011   7.017   4.596 -0.1651 -0.1003 -0.0703
    1DIPC   D3A21295   6.052   7.388   4.865 -0.2696  0.1504 -0.2797
    1DIPC   C4A21296   5.772   7.501   5.140  0.1378 -0.3675 -0.0271
    1DIPC   C1B21297   6.844   7.119   4.290 -0.0046  0.0338  0.1150
    1DIPC   D2B21298   7.074   6.942   4.625  0.2970  0.2787 -0.1730
    1DIPC   D3B21299   7.147   7.319   4.698  0.0783 -0.3903 -0.0970
    1DIPC   C4B21300   7.569   7.450   4.766  0.1612 -0.0656 -0.4194
    1DIPC   NC321301   5.257  23.062   2.035  0.1459 -0.0387 -0.0538
    1DIPC   PO421302   5.270  22.798   2.430 -0.1009  0.1557  0.0204
    1DIPC   GL121303   5.283  22.913   2.839 -0.0489  0.0555 -0.1738
    1DIPC   GL221304   5.544  22.891   3.001 -0.0698 -0.2247 -0.2217
    1DIPC   C1A21305   5.084  22.816   3.281 -0.2640 -0.3043  0.0415
    1DIPC   D2A21306   4.892  22.733   3.597  0.3297  0.2331 -0.0216
    1DIPC   D3A21307   4.585  22.987   3.345  0.0315 -0.1464  0.0519
    1DIPC   C4A21308   4.685  23.066   2.960 -0.4311 -0.0832 -0.1297
    1DIPC   C1B21309   5.351  22.460   3.030 -0.4035  0.0459  0.1179
    1DIPC   D2B21310   5.345  22.075   2.841  0.4006 -0.0209 -0.1593
    1DIPC   D3B21311   5.225  21.893   3.200  0.1781 -0.0286  0.0358
    1DIPC   C4B21312   5.483  22.085   3.438  0.0806 -0.1880 -0.0184
    1DIPC   NC321313  16.157   4.529   2.455  0.1495 -0.1733 -0.4260
    1DIPC   PO421314  15.985   4.935   2.602 -0.2504  0.1658  0.0988
    1DIPC   GL121315  16.242   4.957   3.081 -0.1118  0.3885  0.0352
    1DIPC   GL221316  16.496   4.734   3.048 -0.0001 -0.4771 -0.1480
    1DIPC   C1A21317  16.218   5.040   3.538  0.1637  0.0877 -0.0580
    1DIPC   D2A21318  16.537   4.916   3.974  0.2013 -0.2570  0.0084
    1DIPC   D3A21319  16.415   5.141   4.298  0.0068  0.0085 -0.2125
    1DIPC   C4A21320  16.206   4.999   4.596  0.1514 -0.0883 -0.0812
    1DIPC   C1B21321  16.201   4.564   3.318  0.0139 -0.3306 -0.0131
    1DIPC   D2B21322  16.199   4.573   3.791 -0.0292 -0.0718 -0.0257
    1DIPC   D3B21323  16.236   4.557   4.265 -0.1330 -0.1856 -0.1470
    1DIPC   C4B21324  16.653   4.586   4.539  0.1120 -0.1585  0.1230
    1DIPC   NC321325  24.890   3.025   3.275 -0.2049  0.0506  0.0456
    1DIPC   PO421326  24.710   3.414   3.296  0.0486 -0.3878  0.1326
    1DIPC   GL121327  24.985   3.369   3.606 -0.0566  0.3514 -0.0458
    1DIPC   GL221328  25.244   3.566   3.656  0.2553  0.0973  0.0774
    1DIPC   C1A21329  25.162   3.224   4.053  0.1076  0.1923 -0.2318
    1DIPC   D2A21330  25.104   2.904   4.207  0.0254 -0.0378  0.1881
    1DIPC   D3A21331  25.047   3.192   4.521  0.1467  0.0955  0.0723
    1DIPC   C4A21332  24.720   3.153   4.787  0.1281  0.0548  0.0057
    1DIPC   C1B21333  25.324   3.701   4.072 -0.1143  0.2679  0.2949
    1DIPC   D2B21334  25.206   3.746   4.533  0.2120  0.0490 -0.1976
    1DIPC   D3B21335  25.531   4.046   4.648 -0.2155 -0.0559  0.3891
    1DIPC   C4B21336  25.516   4.504   4.615 -0.0022 -0.0567  0.0671
    1DIPC   NC321337  29.106  17.693   2.343  0.0455  0.2027 -0.1834
    1DIPC   PO421338  29.463  18.003   2.376  0.3531 -0.1652  0.2897
    1DIPC   GL121339  29.339  17.920   2.783  0.0440 -0.1599 -0.0462
    1DIPC   GL221340  29.092  17.763   2.889 -0.0323  0.1425  0.1491
    1DIPC   C1A21341  29.519  17.930   3.276  0.3200  0.2976 -0.1094
    1DIPC   D2A21342  29.246  18.181   3.640 -0.0639 -0.0170  0.1944
    1DIPC   D3A21343  29.495  17.905   3.821  0.1055  0.1223  0.1228
    1DIPC   C4A21344  29.914  17.840   3.617 -0.1791  0.0365  0.0436
    1DIPC   C1B21345  29.001  17.790   3.322  0.1338  0.1296  0.0236
    1DIPC   D2B21346  29.006  17.730   3.773 -0.1433  0.1668 -0.1588
    1DIPC   D3B21347  28.953  17.988   4.102 -0.0907  0.0531  0.2622
    1DIPC   C4B21348  29.229  18.380   4.092  0.0211  0.0959 -0.0848
    1DIPC   NC321349  27.743  11.194   1.861  0.0618  0.0882  0.2581
    1DIPC   PO421350  27.828  11.382   2.328 -0.0670 -0.0465  0.1943
    1DIPC   GL121351  28.068  11.360   2.750 -0.0803  0.2923  0.0258
    1DIPC   GL221352  27.883  11.245   3.040  0.0969  0.0372  0.3448
    1DIPC   C1A21353  28.299  11.342   3.270 -0.2118 -0.4553  0.0607
    1DIPC   D2A21354  28.633  11.091   3.429 -0.0629 -0.2266  0.0429
    1DIPC   D3A21355  28.917  11.416   3.646 -0.1717 -0.2727  0.1268
    1DIPC   C4A21356  28.714  11.775   3.731 -0.0292 -0.0902 -0.3642
    1DIPC   C1B21357  27.572  11.256   3.176  0.0852  0.1194 -0.3369
    1DIPC   D2B21358  27.115  11.405   3.174  0.1446 -0.1027 -0.1082
    1DIPC   D3B21359  26.846  11.207   3.530 -0.1358  0.0458 -0.0959
    1DIPC   C4B21360  26.805  10.792   3.596  0.0946 -0.1404 -0.2998
    1DIPC   NC321361  19.848   4.139   2.569 -0.1961 -0.1231 -0.0933
    1DIPC   PO421362  20.220   4.182   2.792 -0.0226 -0.1615 -0.1619
    1DIPC   GL121363  20.187   4.292   3.205  0.1903 -0.1215 -0.3332
    1DIPC   GL221364  19.996   3.958   3.305 -0.0956  0.0237 -0.0202
    1DIPC   C1A21365  20.306   4.537   3.549  0.0511 -0.1398 -0.2233
    1DIPC   D2A21366  20.199   4.803   3.773 -0.1487 -0.0315 -0.0576
    1DIPC   D3A21367  20.361   4.988   3.364  0.1805  0.0558 -0.0334
    1DIPC   C4A21368  20.736   5.299   3.305 -0.1053  0.1971 -0.1673
    1DIPC   C1B21369  20.369   4.033   3.624  0.0584  0.1164 -0.2972
    1DIPC   D2B21370  20.613   3.756   4.003  0.0461 -0.1647 -0.1397
    1DIPC   D3B21371  20.543   3.969   4.312  0.3666  0.2935  0.0234
    1DIPC   C4B21372  20.239   3.931   4.559  0.0266  0.0575 -0.2834
    1DIPC   NC321373   6.125  12.555   2.968  0.0853 -0.0114  0.1833
    1DIPC   PO421374   6.529  12.385   2.817  0.0547 -0.3672 -0.2264
    1DIPC   GL121375   6.474  12.273   3.261 -0.0420 -0.2376  0.1956
    1DIPC   GL221376   6.752  12.572   3.470  0.0944  0.0812 -0.0967
    1DIPC   C1A21377   6.466  12.138   3.601  0.4219  0.0289  0.0155
    1DIPC   D2A21378   6.536  11.912   3.907  0.1377  0.0284  0.1744
    1DIPC   D3A21379   6.135  12.082   4.036  0.1100 -0.0148  0.0120
    1DIPC   C4A21380   5.814  12.369   4.033 -0.0645  0.3840  0.2267
    1DIPC   C1B21381   6.959  12.287   3.760  0.0597  0.0867 -0.1632
    1DIPC   D2B21382   7.121  12.471   4.219  0.2623 -0.0759 -0.2273
    1DIPC   D3B21383   6.962  12.441   4.529 -0.2182 -0.1357 -0.1607
    1DIPC   C4B21384   6.484  12.541   4.668 -0.3468  0.0229  0.1007
    1DIPC   NC321385  21.400   5.893   2.786 -0.1171  0.1551  0.0095
    1DIPC   PO421386  21.101   6.242   3.018  0.1328 -0.2796  0.1505
    1DIPC   GL121387  21.093   6.269   3.428  0.0483 -0.0848  0.0515
    1DIPC   GL221388  21.408   6.446   3.469  0.0216  0.3291  0.3046
    1DIPC   C1A21389  20.995   6.158   3.809  0.3027 -0.3207  0.0413
    1DIPC   D2A21390  20.952   6.329   4.246 -0.1318 -0.0468 -0.3348
    1DIPC   D3A21391  21.266   5.992   4.267  0.4155  0.1024  0.0402
    1DIPC   C4A21392  21.398   5.672   4.498 -0.0581  0.1513  0.1466
    1DIPC   C1B21393  21.382   6.508   3.993 -0.1585  0.2521 -0.0786
    1DIPC   D2B21394  21.423   6.516   4.411  0.1494 -0.1141  0.2448
    1DIPC   D3B21395  21.642   6.178   4.569 -0.4307 -0.0380  0.1876
    1DIPC   C4B21396  21.828   6.209   4.898  0.3944 -0.0072  0.4992
    1DIPC   NC321397  22.304   5.679   2.875 -0.0411  0.0508  0.0185
    1DIPC   PO421398  21.903   5.857   2.786  0.1204 -0.0896  0.1367
    1DIPC   GL121399  21.712   5.699   3.148  0.0646 -0.0839 -0.2635
    1DIPC   GL221400  21.936   5.585   3.424 -0.1108 -0.0297  0.0298
    1DIPC   C1A21401  21.407   5.585   3.451  0.1048  0.1349 -0.1471
    1DIPC   D2A21402  21.255   5.715   3.849  0.1147 -0.1064 -0.0226
    1DIPC   D3A21403  21.018   5.510   4.098  0.2756 -0.3632 -0.2412
    1DIPC   C4A21404  20.842   5.682   4.508  0.1202 -0.1777  0.1270
    1DIPC   C1B21405  21.797   5.913   3.610 -0.1354  0.0350 -0.1212
    1DIPC   D2B21406  21.630   6.117   3.936 -0.0550 -0.1266 -0.0786
    1DIPC   D3B21407  21.954   5.922   4.154  0.1198 -0.0962 -0.0077
    1DIPC   C4B21408  22.044   5.866   4.562 -0.1913 -0.0950  0.0212
    1DIPC   NC321409   3.951  16.365   1.935 -0.0847  0.0421  0.0889
    1DIPC   PO421410   3.673  16.566   2.087  0.0809  0.0515 -0.0636
    1DIPC   GL121411   3.648  16.917   2.418 -0.1684  0.1601  0.1061
    1DIPC   GL221412   3.570  16.666   2.601 -0.2489  0.1547 -0.2150
    1DIPC   C1A21413   3.850  16.972   2.823  0.2410  0.2514 -0.1468
    1DIPC   D2A21414   4.253  16.880   3.084  0.1712 -0.0620 -0.0453
    1DIPC   D3A21415   4.372  16.926   2.653 -0.3000  0.2029  0.0221
    1DIPC   C4A21416   4.416  17.073   2.215 -0.0566 -0.3076  0.1803
    1DIPC   C1B21417   3.494  16.325   2.905 -0.1758 -0.2124 -0.1104
    1DIPC   D2B21418   3.548  16.156   3.321  0.0427 -0.2013  0.1060
    1DIPC   D3B21419   3.839  16.162   3.558  0.0567 -0.0591 -0.1334
    1DIPC   C4B21420   4.260  16.107   3.590 -0.5387 -0.0350 -0.0537
    1DIPC   NC321421  22.266   8.095   2.717 -0.2709 -0.1402 -0.0727
    1DIPC   PO421422  22.748   8.254   2.626 -0.0940 -0.0222 -0.1022
    1DIPC   GL121423  22.533   8.354   3.090  0.0416 -0.0293 -0.1588
    1DIPC   GL221424  22.735   8.254   3.290 -0.1175 -0.0371  0.2388
    1DIPC   C1A21425  22.396   8.667   3.411  0.0113 -0.3466 -0.1257
    1DIPC   D2A21426  22.047   9.005   3.225  0.3266  0.0199  0.1238
    1DIPC   D3A21427  21.589   8.857   3.043  0.0417 -0.3084  0.2550
    1DIPC   C4A21428  21.231   8.641   3.218  0.1234  0.0191  0.0560
    1DIPC   C1B21429  22.526   8.042   3.563 -0.1971 -0.1973 -0.1403
    1DIPC   D2B21430  22.088   7.848   3.770  0.0915  0.0653 -0.0669
    1DIPC   D3B21431  22.093   8.005   4.233 -0.1737  0.0664  0.0527
    1DIPC   C4B21432  22.395   8.119   4.573 -0.5362 -0.3119  0.1733
    1DIPC   NC321433   6.491  20.851   2.220 -0.2553  0.1276 -0.0253
    1DIPC   PO421434   6.720  20.605   1.954 -0.1979 -0.1199 -0.0644
    1DIPC   GL121435   6.915  20.642   2.289  0.0057 -0.0619 -0.0511
    1DIPC   GL221436   6.958  20.368   2.483  0.1729  0.0459 -0.1427
    1DIPC   C1A21437   6.922  20.916   2.691 -0.1875 -0.0625  0.2404
    1DIPC   D2A21438   7.052  21.239   2.921 -0.1330  0.0275  0.2154
    1DIPC   D3A21439   7.057  21.134   3.380  0.0853  0.1779 -0.1236
    1DIPC   C4A21440   7.282  21.039   3.779 -0.2502  0.1912  0.0719
    1DIPC   C1B21441   6.894  20.292   2.955 -0.1265  0.2670 -0.3394
    1DIPC   D2B21442   6.876  20.178   3.369 -0.2542  0.3220 -0.3058
    1DIPC   D3B21443   7.076  19.808   3.554  0.2468  0.1703  0.1752
    1DIPC   C4B21444   7.013  19.487   3.760  0.0153 -0.1696  0.0037
    1DIPC   NC321445  16.100  27.149   3.323 -0.0941 -0.1926  0.1214
    1DIPC   PO421446  16.559  27.163   3.268 -0.0141  0.2046  0.0173
    1DIPC   GL121447  16.484  26.999   3.739 -0.1978 -0.1468  0.1585
    1DIPC   GL221448  16.709  27.201   3.886  0.0219 -0.1024 -0.4372
    1DIPC   C1A21449  16.292  26.936   4.109 -0.3373 -0.0232 -0.0436
    1DIPC   D2A21450  16.162  26.995   4.559  0.1377  0.2251 -0.0197
    1DIPC   D3A21451  16.472  27.086   4.883 -0.1072  0.0558 -0.0317
    1DIPC   C4A21452  16.605  26.886   5.287 -0.0874  0.0881  0.0285
    1DIPC   C1B21453  16.931  26.928   4.186 -0.0532 -0.0398  0.2132
    1DIPC   D2B21454  16.643  26.718   4.506 -0.0032 -0.1654 -0.2322
    1DIPC   D3B21455  16.983  26.716   4.716 -0.1726  0.1306  0.1869
    1DIPC   C4B21456  17.036  27.010   5.064 -0.0358 -0.0273  0.0634
    1DIPC   NC321457  26.152  11.350   2.220 -0.1020  0.0030  0.1943
    1DIPC   PO421458  25.872  11.131   2.205 -0.2214  0.1946  0.3240
    1DIPC   GL121459  25.917  11.220   2.679  0.0047  0.0651  0.3176
    1DIPC   GL221460  26.138  11.457   2.761  0.1181  0.1023  0.3256
    1DIPC   C1A21461  25.731  11.317   3.149 -0.1531  0.0741  0.2084
    1DIPC   D2A21462  25.638  11.112   3.459  0.0187 -0.2376 -0.1580
    1DIPC   D3A21463  25.955  11.226   3.691  0.0625 -0.0864 -0.0272
    1DIPC   C4A21464  25.748  11.513   4.026  0.1148 -0.1680 -0.0351
    1DIPC   C1B21465  26.211  11.398   3.264 -0.1266 -0.2047 -0.0032
    1DIPC   D2B21466  26.279  11.604   3.747  0.0429 -0.2028 -0.0992
    1DIPC   D3B21467  26.450  11.270   3.795 -0.0073 -0.2506 -0.0498
    1DIPC   C4B21468  26.605  10.929   4.099 -0.3286 -0.1500  0.0081
    1DIPC   NC321469  12.906   1.879   3.376 -0.2499 -0.0644  0.2315
    1DIPC   PO421470  12.944   1.738   3.853  0.3627  0.0354 -0.1726
    1DIPC   GL121471  12.848   1.407   4.172 -0.1442  0.3079 -0.1499
    1DIPC   GL221472  12.969   1.104   4.075  0.1374 -0.1354 -0.2063
    1DIPC   C1A21473  12.735   1.287   4.577 -0.3324 -0.0917 -0.0156
    1DIPC   D2A21474  12.372   1.260   4.868  0.0856 -0.0835 -0.0900
    1DIPC   D3A21475  12.250   0.834   5.163  0.2444 -0.2380 -0.0787
    1DIPC   C4A21476  11.916   0.537   5.141 -0.1539 -0.2142  0.1808
    1DIPC   C1B21477  13.200   1.148   4.461 -0.0992 -0.0652  0.0101
    1DIPC   D2B21478  13.088   1.105   4.925  0.1882  0.1334  0.1301
    1DIPC   D3B21479  13.345   0.767   4.880 -0.1350  0.0728  0.2986
    1DIPC   C4B21480  13.248   0.406   4.652 -0.0061  0.1868  0.1104
    1DIPC   NC321481  26.943  11.017   2.418 -0.0143 -0.1081 -0.1735
    1DIPC   PO421482  27.112  10.597   2.381 -0.2475 -0.0817  0.0472
    1DIPC   GL121483  26.733  10.428   2.433 -0.0448  0.1273 -0.2875
    1DIPC   GL221484  26.728  10.033   2.510  0.1019 -0.2234 -0.2999
    1DIPC   C1A21485  26.560  10.581   2.778 -0.1173  0.1808  0.3220
    1DIPC   D2A21486  26.446  10.973   2.939 -0.2495  0.1935  0.2272
    1DIPC   D3A21487  26.965  10.884   2.973 -0.0941  0.4006 -0.0356
    1DIPC   C4A21488  27.016  10.441   3.229  0.0008 -0.2501  0.0401
    1DIPC   C1B21489  26.742  10.129   2.918 -0.2507 -0.0723 -0.1510
    1DIPC   D2B21490  26.540  10.320   3.268 -0.1312  0.1031  0.2849
    1DIPC   D3B21491  26.277  10.581   3.244 -0.0261 -0.1379  0.1356
    1DIPC   C4B21492  26.299  10.890   3.559 -0.0771  0.4795  0.3205
    1DIPC   NC321493  24.396   1.683   3.143  0.0037 -0.0891 -0.4954
    1DIPC   PO421494  24.683   1.528   3.131  0.0251 -0.2903  0.2007
    1DIPC   GL121495  24.791   1.560   3.499 -0.1532 -0.1751 -0.2567
    1DIPC   GL221496  25.054   1.492   3.713  0.0170  0.1633  0.0747
    1DIPC   C1A21497  24.673   1.420   3.962 -0.0426 -0.1340  0.1407
    1DIPC   D2A21498  24.963   1.189   4.188 -0.0986 -0.0172 -0.1313
    1DIPC   D3A21499  25.308   1.066   4.173  0.0145 -0.0826  0.0788
    1DIPC   C4A21500  25.543   1.283   4.478  0.0228 -0.0744  0.0315
    1DIPC   C1B21501  25.287   1.583   4.131 -0.0042  0.0077 -0.0829
    1DIPC   D2B21502  25.446   1.887   4.546  0.1243 -0.2358 -0.2537
    1DIPC   D3B21503  25.495   1.809   4.959 -0.3320  0.1887  0.0472
    1DIPC   C4B21504  25.831   1.526   4.964 -0.2407 -0.1196 -0.0270
    1DIPC   NC321505  19.922  26.512   2.968  0.0717  0.0154 -0.1119
    1DIPC   PO421506  19.664  26.606   3.358  0.2604 -0.2950  0.0288
    1DIPC   GL121507  19.857  26.722   3.703  0.0039  0.0950  0.1134
    1DIPC   GL221508  19.679  26.819   3.934  0.0469  0.2092  0.2940
    1DIPC   C1A21509  20.249  26.784   3.851 -0.2032  0.0174  0.2502
    1DIPC   D2A21510  20.565  26.899   3.606 -0.1466 -0.3173 -0.1143
    1DIPC   D3A21511  20.880  26.618   3.818 -0.0283  0.0204 -0.1301
    1DIPC   C4A21512  20.959  26.346   4.183 -0.2620 -0.0901 -0.0103
    1DIPC   C1B21513  19.913  26.647   4.274 -0.0881  0.1710  0.2081
    1DIPC   D2B21514  20.033  26.412   4.589  0.0904 -0.1256  0.0849
    1DIPC   D3B21515  20.368  26.611   4.903  0.2330 -0.1787 -0.5038
    1DIPC   C4B21516  20.322  27.075   5.053  0.0579 -0.0376  0.1786
    1DIPC   NC321517   9.057   4.228   3.436  0.0106 -0.0905 -0.4003
    1DIPC   PO421518   8.889   3.927   3.844  0.1455 -0.0057 -0.1809
    1DIPC   GL121519   8.600   4.078   4.230  0.3611 -0.0139 -0.1180
    1DIPC   GL221520   8.539   3.800   4.384 -0.1205 -0.1975  0.3749
    1DIPC   C1A21521   8.204   4.374   4.362 -0.3068 -0.0476 -0.0216
    1DIPC   D2A21522   8.084   4.669   4.686  0.2785  0.1940 -0.2419
    1DIPC   D3A21523   7.651   4.863   4.872  0.1218 -0.2382 -0.4332
    1DIPC   C4A21524   7.348   4.802   5.154  0.0585  0.0605 -0.0409
    1DIPC   C1B21525   8.498   4.096   4.724  0.0107 -0.1574  0.1529
    1DIPC   D2B21526   8.719   4.051   5.108  0.0492  0.1954 -0.1066
    1DIPC   D3B21527   8.896   3.665   5.240 -0.1562  0.1541  0.1761
    1DIPC   C4B21528   8.535   3.385   5.325 -0.0563 -0.1736 -0.0244
    1DIPC   NC321529   1.979  21.394   2.182 -0.4211 -0.1365  0.0177
    1DIPC   PO421530   1.731  21.798   2.244  0.0563  0.2662 -0.1812
    1DIPC   GL121531   1.965  21.672   2.578  0.0228  0.0080 -0.1162
    1DIPC   GL221532   2.128  21.864   2.620  0.1386  0.1597  0.1898
    1DIPC   C1A21533   1.892  21.379   2.985  0.0971 -0.1117  0.1667
    1DIPC   D2A21534   1.860  21.346   3.405 -0.0477  0.0927 -0.1163
    1DIPC   D3A21535   2.197  21.572   3.721 -0.1331 -0.0608  0.1983
    1DIPC   C4A21536   2.340  21.233   4.040 -0.0078  0.0799  0.0145
    1DIPC   C1B21537   2.381  21.666   2.858 -0.2141 -0.1364 -0.0380
    1DIPC   D2B21538   2.293  21.534   3.248 -0.0073 -0.4158  0.1413
    1DIPC   D3B21539   2.568  21.834   3.357 -0.0526  0.0992 -0.0109
    1DIPC   C4B21540   2.563  21.997   3.732  0.3930 -0.0017  0.3147
    1DIPC   NC321541  24.983   5.178   2.908 -0.3085 -0.0930 -0.2305
    1DIPC   PO421542  24.719   5.274   3.236  0.0460  0.1392  0.1823
    1DIPC   GL121543  24.447   5.247   3.659 -0.1340  0.1224  0.0464
    1DIPC   GL221544  24.573   4.906   3.665 -0.2565 -0.1019 -0.3040
    1DIPC   C1A21545  24.504   5.382   4.102  0.0092 -0.1942  0.0803
    1DIPC   D2A21546  24.794   5.347   4.398  0.0372  0.2621  0.0781
    1DIPC   D3A21547  24.749   5.486   4.822 -0.1161  0.1462 -0.0958
    1DIPC   C4A21548  24.737   5.854   4.987  0.2574  0.2696  0.1749
    1DIPC   C1B21549  24.885   5.142   3.863 -0.0347  0.1458 -0.0075
    1DIPC   D2B21550  25.184   4.891   4.204  0.1395  0.2706  0.2512
    1DIPC   D3B21551  25.651   4.918   4.183 -0.4919 -0.1448 -0.0397
    1DIPC   C4B21552  25.965   4.618   4.363  0.3442  0.1529 -0.1223
    1DIPC   NC321553  20.742  23.241   3.433  0.1373 -0.0414 -0.0028
    1DIPC   PO421554  20.470  23.586   3.371 -0.0435  0.0988 -0.1170
    1DIPC   GL121555  20.408  23.389   3.880  0.0391  0.0465  0.1672
    1DIPC   GL221556  20.090  23.211   3.925  0.2050 -0.1687 -0.1014
    1DIPC   C1A21557  20.588  23.308   4.287  0.1669  0.1489  0.0057
    1DIPC   D2A21558  20.739  23.556   4.689  0.2879 -0.1085 -0.0172
    1DIPC   D3A21559  20.300  23.455   4.670  0.1859 -0.1147 -0.0255
    1DIPC   C4A21560  20.053  23.354   5.063  0.0937 -0.1475 -0.1232
    1DIPC   C1B21561  19.991  23.516   4.190 -0.2323  0.1909  0.1437
    1DIPC   D2B21562  19.796  23.528   4.590 -0.0230 -0.1024 -0.1023
    1DIPC   D3B21563  19.788  23.758   4.934 -0.3427 -0.3363  0.1911
    1DIPC   C4B21564  19.533  23.667   5.225  0.0328  0.1697 -0.2255
    1DIPC   NC321565  10.259   4.815   3.551  0.0070  0.0093  0.1661
    1DIPC   PO421566  10.617   5.065   3.610 -0.1571  0.0280  0.2507
    1DIPC   GL121567  10.535   5.304   3.814  0.1721 -0.0735 -0.3105
    1DIPC   GL221568  10.233   5.351   4.011 -0.1439 -0.2766 -0.0519
    1DIPC   C1A21569  10.878   5.563   3.979 -0.3012  0.2606  0.0287
    1DIPC   D2A21570  11.130   5.482   4.367  0.1314  0.1097 -0.1029
    1DIPC   D3A21571  11.256   5.432   4.765 -0.2022  0.0409 -0.1682
    1DIPC   C4A21572  11.521   5.697   5.067 -0.3112  0.0377  0.1574
    1DIPC   C1B21573  10.554   5.318   4.334 -0.1638  0.2252  0.0819
    1DIPC   D2B21574  10.823   5.219   4.716 -0.2151  0.1785  0.1435
    1DIPC   D3B21575  10.969   4.931   4.520  0.0954 -0.2986 -0.2141
    1DIPC   C4B21576  10.829   4.629   4.315 -0.1501 -0.0575 -0.2333
    1DIPC   NC321577   6.624   5.002   3.645 -0.1307  0.5656  0.0759
    1DIPC   PO421578   6.479   5.404   3.778  0.0293  0.4644 -0.0805
    1DIPC   GL121579   6.797   5.564   4.070  0.3376 -0.0069 -0.0219
    1DIPC   GL221580   6.819   5.410   4.349  0.0169 -0.0905  0.0936
    1DIPC   C1A21581   6.908   5.898   4.395  0.1860 -0.2368  0.3259
    1DIPC   D2A21582   7.148   6.102   4.750  0.1250 -0.0304 -0.1621
    1DIPC   D3A21583   6.869   6.358   4.597  0.3945  0.0196 -0.2667
    1DIPC   C4A21584   6.396   6.194   4.522  0.1302  0.2351 -0.2247
    1DIPC   C1B21585   6.826   5.464   4.717  0.0008  0.1535  0.1019
    1DIPC   D2B21586   6.953   5.740   5.037 -0.4225 -0.1987 -0.0581
    1DIPC   D3B21587   7.363   5.852   5.085 -0.0856 -0.2320 -0.3385
    1DIPC   C4B21588   7.621   6.166   4.838 -0.1213 -0.2968  0.0461
    1DIPC   NC321589   9.280  29.800   3.459  0.2057  0.0619 -0.1221
    1DIPC   PO421590   8.904  29.476   3.588 -0.1136 -0.0965 -0.2931
    1DIPC   GL121591   8.777  29.323   3.908  0.0864  0.1542  0.0038
    1DIPC   GL221592   8.572  29.506   4.020 -0.2245 -0.2267  0.2234
    1DIPC   C1A21593   8.793  29.119   4.318  0.0583 -0.0867 -0.1588
    1DIPC   D2A21594   8.969  29.142   4.810 -0.3348  0.2767 -0.2389
    1DIPC   D3A21595   9.243  29.501   4.786 -0.4402  0.3113  0.1364
    1DIPC   C4A21596   9.483  29.803   4.891  0.1676  0.3927 -0.0812
    1DIPC   C1B21597   8.450  29.800   4.331  0.0263 -0.1612 -0.2877
    1DIPC   D2B21598   8.476  29.820   4.825 -0.2261  0.0394 -0.3897
    1DIPC   D3B21599   8.551  29.420   4.773  0.1926 -0.2752  0.0365
    1DIPC   C4B21600   8.490  29.131   5.046 -0.1347  0.0498 -0.1206
    1DIPC   NC321601  26.218  15.597   1.888  0.1829 -0.0357 -0.1264
    1DIPC   PO421602  26.379  15.944   2.166 -0.2221  0.2080 -0.0737
    1DIPC   GL121603  26.646  15.818   2.476 -0.0736 -0.0258 -0.1368
    1DIPC   GL221604  26.806  16.109   2.509 -0.1969 -0.0946 -0.1148
    1DIPC   C1A21605  26.834  15.607   2.812 -0.0143 -0.0490 -0.0640
    1DIPC   D2A21606  26.974  15.238   3.014 -0.0736 -0.1573  0.0799
    1DIPC   D3A21607  27.273  15.445   3.310  0.1028  0.2091  0.0527
    1DIPC   C4A21608  27.456  15.330   3.705 -0.0579 -0.0401  0.0389
    1DIPC   C1B21609  26.614  16.063   2.957 -0.0285 -0.0944  0.1720
    1DIPC   D2B21610  26.589  15.984   3.401 -0.2822  0.1894  0.0423
    1DIPC   D3B21611  26.774  15.585   3.347 -0.1081 -0.0564 -0.1145
    1DIPC   C4B21612  26.936  15.448   3.718  0.0550 -0.0196 -0.1546
    1DIPC   NC321613  26.076  18.987   2.443 -0.0649 -0.3506 -0.2625
    1DIPC   PO421614  26.052  19.406   2.649 -0.2712  0.3966 -0.0231
    1DIPC   GL121615  26.109  19.734   3.034  0.0527  0.0937 -0.2091
    1DIPC   GL221616  26.084  19.991   3.248  0.0026 -0.1592 -0.0949
    1DIPC   C1A21617  26.052  19.455   3.502  0.2928  0.3995  0.0775
    1DIPC   D2A21618  26.056  19.377   3.877  0.1216 -0.2626 -0.2241
    1DIPC   D3A21619  25.583  19.376   3.849  0.1349  0.1633  0.2470
    1DIPC   C4A21620  25.293  19.738   3.901 -0.0897  0.3678 -0.0649
    1DIPC   C1B21621  26.401  19.883   3.629 -0.1229  0.2317  0.1033
    1DIPC   D2B21622  26.386  19.757   4.055  0.3411 -0.0982 -0.1664
    1DIPC   D3B21623  26.807  19.761   3.935 -0.0666  0.0469  0.0553
    1DIPC   C4B21624  26.881  19.934   3.446  0.0690 -0.1427  0.0264
    1DIPC   NC321625   9.350  23.893   1.662  0.1491 -0.1984  0.3102
    1DIPC   PO421626   9.379  23.952   2.129  0.3890  0.0526  0.0348
    1DIPC   GL121627   9.374  24.026   2.616  0.1084 -0.1294  0.1253
    1DIPC   GL221628   9.611  23.900   2.777 -0.2002  0.2352  0.2919
    1DIPC   C1A21629   9.245  24.217   3.004 -0.0026 -0.0225 -0.0188
    1DIPC   D2A21630   9.431  24.084   3.365 -0.2146  0.2337  0.1397
    1DIPC   D3A21631   9.351  24.114   3.783  0.4671 -0.0559 -0.0861
    1DIPC   C4A21632   9.397  23.724   4.078  0.1119 -0.1386 -0.0957
    1DIPC   C1B21633   9.777  24.184   2.898  0.1097  0.0894 -0.0890
    1DIPC   D2B21634   9.988  24.449   3.193  0.0940 -0.0541 -0.3740
    1DIPC   D3B21635  10.030  24.008   3.330 -0.1252  0.1513 -0.0770
    1DIPC   C4B21636   9.784  23.760   3.221  0.2199 -0.1064 -0.0930
    1DIPC   NC321637   2.229  20.590   2.032  0.0078  0.2031 -0.0010
    1DIPC   PO421638   2.450  20.947   2.046 -0.2225  0.0357  0.0792
    1DIPC   GL121639   2.644  21.128   2.418  0.0393 -0.1800  0.3732
    1DIPC   GL221640   2.359  21.280   2.582  0.1311  0.0317  0.0665
    1DIPC   C1A21641   3.016  21.260   2.626  0.3313  0.1194 -0.0043
    1DIPC   D2A21642   3.428  21.188   2.955  0.0127  0.0900  0.0446
    1DIPC   D3A21643   3.473  21.101   3.452 -0.0329 -0.1372 -0.3130
    1DIPC   C4A21644   3.653  20.885   3.805 -0.2369  0.0270  0.0631
    1DIPC   C1B21645   2.539  21.144   2.964  0.1310 -0.3643  0.3014
    1DIPC   D2B21646   2.758  21.332   3.184 -0.1654 -0.2590 -0.1037
    1DIPC   D3B21647   2.697  21.423   3.647  0.1749 -0.0761  0.3944
    1DIPC   C4B21648   2.883  21.098   3.784  0.0076  0.0737  0.0728
    1DIPC   NC321649  19.621  10.641   2.059 -0.5573  0.1334  0.2666
    1DIPC   PO421650  19.160  10.387   2.065 -0.0245 -0.0660 -0.2656
    1DIPC   GL121651  19.384  10.445   2.447 -0.1942 -0.2427 -0.0320
    1DIPC   GL221652  19.131  10.256   2.695 -0.1520 -0.0578 -0.1386
    1DIPC   C1A21653  19.638  10.405   2.702 -0.1378  0.2045  0.1126
    1DIPC   D2A21654  20.102  10.307   2.771 -0.1284  0.2547  0.1161
    1DIPC   D3A21655  20.521  10.022   2.678 -0.0350  0.2683  0.0388
    1DIPC   C4A21656  20.866   9.967   2.916  0.2339  0.2514  0.1021
    1DIPC   C1B21657  18.751  10.330   2.950 -0.0187  0.1285 -0.0601
    1DIPC   D2B21658  18.774  10.265   3.351 -0.0958 -0.0868  0.0486
    1DIPC   D3B21659  18.897   9.876   3.658 -0.0436 -0.0882 -0.1269
    1DIPC   C4B21660  19.274   9.978   3.939  0.1966 -0.2767 -0.2215
    1DIPC   NC321661  11.965  26.520   2.790  0.3057  0.1154 -0.3189
    1DIPC   PO421662  12.078  26.901   2.982  0.1783  0.1223  0.1402
    1DIPC   GL121663  11.956  26.627   3.351 -0.0965 -0.3717 -0.0581
    1DIPC   GL221664  11.737  26.820   3.445  0.2816 -0.2254 -0.4181
    1DIPC   C1A21665  12.265  26.507   3.519  0.1067  0.1733 -0.1705
    1DIPC   D2A21666  12.575  26.571   3.616 -0.0091  0.1156  0.1074
    1DIPC   D3A21667  12.414  26.562   4.044  0.1951 -0.2347 -0.0691
    1DIPC   C4A21668  12.130  26.762   4.330 -0.0065 -0.1097  0.0857
    1DIPC   C1B21669  11.510  26.594   3.658  0.3027 -0.0294  0.2709
    1DIPC   D2B21670  11.287  26.268   3.824  0.2891  0.3316 -0.0106
    1DIPC   D3B21671  11.442  26.327   4.198 -0.2051  0.1469 -0.6498
    1DIPC   C4B21672  11.697  26.716   4.125  0.0205 -0.0554  0.1234
    1DIPC   NC321673  27.721  21.075   2.740  0.2126  0.0484 -0.2367
    1DIPC   PO421674  28.014  20.723   2.802 -0.1189 -0.0512 -0.1324
    1DIPC   GL121675  28.199  20.530   3.123 -0.4106 -0.1730 -0.1762
    1DIPC   GL221676  28.220  20.207   3.142 -0.0207 -0.1436  0.2958
    1DIPC   C1A21677  28.424  20.663   3.503  0.0096  0.1509 -0.1231
    1DIPC   D2A21678  28.780  20.831   3.801 -0.0677  0.0037  0.2096
    1DIPC   D3A21679  29.192  20.977   3.974 -0.3648  0.0339  0.0528
    1DIPC   C4A21680  29.139  21.033   4.511 -0.0219  0.1643 -0.0778
    1DIPC   C1B21681  28.278  20.194   3.564 -0.3262 -0.1735  0.1685
    1DIPC   D2B21682  28.448  20.269   3.923  0.1959 -0.0971  0.0921
    1DIPC   D3B21683  28.686  20.016   4.143  0.1489  0.2846  0.1487
    1DIPC   C4B21684  28.517  19.646   4.452 -0.1291 -0.0091  0.1964
    1DIPC   NC321685  28.743  13.881   2.223  0.0569 -0.3342 -0.1031
    1DIPC   PO421686  28.380  13.918   2.181 -0.0319 -0.1507  0.2110
    1DIPC   GL121687  28.473  13.886   2.610 -0.0360  0.0997 -0.3463
    1DIPC   GL221688  28.364  14.155   2.823  0.0372  0.2395 -0.1759
    1DIPC   C1A21689  28.268  13.583   2.910  0.2544 -0.4338 -0.4930
    1DIPC   D2A21690  27.898  13.661   3.237 -0.2341  0.1002  0.0277
    1DIPC   D3A21691  28.095  13.938   3.610  0.1148 -0.0157  0.0924
    1DIPC   C4A21692  27.934  14.067   4.021 -0.3961  0.3277  0.1224
    1DIPC   C1B21693  28.133  14.236   3.145 -0.2800 -0.1267  0.0347
    1DIPC   D2B21694  27.944  14.466   3.507  0.1960 -0.1557  0.0412
    1DIPC   D3B21695  27.785  14.569   3.058 -0.3616 -0.2639 -0.0704
    1DIPC   C4B21696  27.314  14.391   2.994 -0.2811  0.3210 -0.3381
    1DIPC   NC321697  20.254   0.477   2.699  0.0198  0.4305 -0.0708
    1DIPC   PO421698  20.393   0.477   3.110  0.3566  0.1759  0.1169
    1DIPC   GL121699  20.327   0.829   3.390  0.1615  0.1899  0.1782
    1DIPC   GL221700  20.241   0.730   3.671  0.1506  0.3639  0.1493
    1DIPC   C1A21701  20.505   1.111   3.676  0.1401  0.0336  0.0153
    1DIPC   D2A21702  20.280   1.339   3.956  0.0045 -0.3881 -0.1475
    1DIPC   D3A21703  19.984   0.997   3.930  0.2728 -0.0138 -0.0687
    1DIPC   C4A21704  19.818   0.704   4.197 -0.3733 -0.0204 -0.2436
    1DIPC   C1B21705  20.323   0.630   4.064  0.0873  0.2170 -0.3200
    1DIPC   D2B21706  20.296   0.397   4.379 -0.0207 -0.1451  0.1555
    1DIPC   D3B21707  20.049   0.403   4.659  0.1361 -0.1120  0.4741
    1DIPC   C4B21708  20.169   0.534   5.019  0.0329  0.1936 -0.0122
    1DIPC   NC321709  13.645   3.899   2.889  0.1965  0.1851  0.1449
    1DIPC   PO421710  13.693   3.925   3.322 -0.2716 -0.0555 -0.2024
    1DIPC   GL121711  13.691   4.053   3.732 -0.0638 -0.1358  0.0589
    1DIPC   GL221712  13.490   3.826   3.804  0.0787  0.4092  0.2974
    1DIPC   C1A21713  13.416   4.166   4.160  0.0227  0.1752  0.1696
    1DIPC   D2A21714  13.621   4.336   4.593 -0.0450  0.2639 -0.0211
    1DIPC   D3A21715  13.413   4.753   4.831  0.2214  0.2536  0.2762
    1DIPC   C4A21716  13.693   5.020   4.980  0.1866 -0.1744  0.0721
    1DIPC   C1B21717  13.348   3.654   4.069  0.0436 -0.1454  0.1059
    1DIPC   D2B21718  13.514   3.444   4.472  0.1412  0.0311 -0.2505
    1DIPC   D3B21719  13.518   3.863   4.550  0.0956  0.0653  0.1396
    1DIPC   C4B21720  13.177   4.031   4.561 -0.1735 -0.0512  0.0682
    1DIPC   NC321721   6.841  22.389   1.281  0.0728 -0.0744 -0.0871
    1DIPC   PO421722   6.796  22.088   1.629 -0.1547 -0.2367  0.1359
    1DIPC   GL121723   7.029  22.121   1.967 -0.0622  0.2497  0.3229
    1DIPC   GL221724   6.965  22.257   2.271  0.3096  0.1391 -0.0396
    1DIPC   C1A21725   7.194  21.745   2.200 -0.2517 -0.7396 -0.1034
    1DIPC   D2A21726   7.289  21.350   2.432 -0.1778 -0.1489  0.1280
    1DIPC   D3A21727   7.518  21.265   2.810 -0.0275  0.0289  0.0287
    1DIPC   C4A21728   8.057  21.310   2.706  0.0354  0.1874  0.1368
    1DIPC   C1B21729   7.006  22.069   2.587 -0.0006  0.1662  0.1967
    1DIPC   D2B21730   7.276  21.703   2.847  0.4264 -0.1614  0.1477
    1DIPC   D3B21731   7.030  21.624   3.302  0.2388 -0.2717 -0.0063
    1DIPC   C4B21732   7.278  21.648   3.615 -0.1778  0.0836  0.0607
    1DIPC   NC321733  14.280  23.732   2.793 -0.0444 -0.0696 -0.1051
    1DIPC   PO421734  14.452  23.483   2.541  0.0313 -0.0288  0.0777
    1DIPC   GL121735  14.241  23.207   2.727  0.0333  0.0117  0.2255
    1DIPC   GL221736  14.222  22.855   2.705 -0.0129  0.0638 -0.0363
    1DIPC   C1A21737  13.941  23.045   3.030  0.4274 -0.0044 -0.0416
    1DIPC   D2A21738  13.575  23.168   3.224  0.2050 -0.1611  0.4278
    1DIPC   D3A21739  13.555  22.847   3.448 -0.0283 -0.3017  0.1008
    1DIPC   C4A21740  13.283  22.754   3.819  0.3935  0.1662 -0.0552
    1DIPC   C1B21741  14.511  22.806   3.023 -0.0886  0.3067  0.0973
    1DIPC   D2B21742  14.973  22.527   3.027  0.0594 -0.2370 -0.2971
    1DIPC   D3B21743  14.747  22.458   3.330  0.0402 -0.1422  0.0600
    1DIPC   C4B21744  14.550  22.895   3.507 -0.0055 -0.0444 -0.0781
    1DIPC   NC321745   6.984   8.240   2.875  0.1499  0.4667 -0.1818
    1DIPC   PO421746   7.095   8.557   3.169  0.0700 -0.0724 -0.0229
    1DIPC   GL121747   6.878   8.886   3.489  0.0203  0.0398 -0.1769
    1DIPC   GL221748   6.648   8.676   3.667 -0.1099 -0.2009  0.1162
    1DIPC   C1A21749   6.960   9.164   3.880 -0.1357 -0.4214  0.1872
    1DIPC   D2A21750   6.694   9.566   3.990  0.1000  0.2506  0.0463
    1DIPC   D3A21751   6.544   9.555   4.513 -0.0091 -0.0493  0.1129
    1DIPC   C4A21752   6.685   9.735   4.974 -0.0335 -0.0037  0.0268
    1DIPC   C1B21753   6.545   8.925   4.023  0.3315 -0.3964  0.2096
    1DIPC   D2B21754   6.644   9.054   4.446  0.2073 -0.0218 -0.0915
    1DIPC   D3B21755   7.033   9.391   4.357 -0.2933  0.1503 -0.0021
    1DIPC   C4B21756   7.227   9.429   4.789 -0.1996  0.2022  0.1862
    1DIPC   NC321757   5.898  13.873   2.605  0.1030 -0.1930  0.2120
    1DIPC   PO421758   6.041  13.414   2.781 -0.0743  0.0397 -0.0741
    1DIPC   GL121759   5.912  13.265   3.204 -0.1640  0.1918  0.2740
    1DIPC   GL221760   5.603  13.292   3.272  0.0802 -0.1237  0.2558
    1DIPC   C1A21761   6.030  13.504   3.639 -0.0424 -0.3257  0.0626
    1DIPC   D2A21762   6.177  13.704   4.038 -0.0802  0.2678  0.0407
    1DIPC   D3A21763   6.449  13.865   3.896  0.1693 -0.0001 -0.2451
    1DIPC   C4A21764   6.740  13.915   4.150  0.0976 -0.1944  0.1263
    1DIPC   C1B21765   5.598  13.325   3.672  0.0644  0.2245  0.1716
    1DIPC   D2B21766   5.490  13.174   4.077  0.0063 -0.0871 -0.0678
    1DIPC   D3B21767   6.014  13.261   4.140 -0.0589 -0.0502  0.0796
    1DIPC   C4B21768   6.136  13.620   4.499 -0.0106 -0.2644 -0.0591
    1DIPC   NC321769  16.874   6.575   2.476  0.0150 -0.3328 -0.2221
    1DIPC   PO421770  16.418   6.500   2.734  0.0900  0.0171  0.1974
    1DIPC   GL121771  16.539   6.124   2.975  0.2408  0.0656 -0.2676
    1DIPC   GL221772  16.565   5.793   2.993 -0.2315  0.0996 -0.0052
    1DIPC   C1A21773  16.569   6.021   3.450  0.0132 -0.2126 -0.2247
    1DIPC   D2A21774  16.797   5.939   3.976 -0.0346 -0.0981 -0.3835
    1DIPC   D3A21775  17.135   6.153   4.146  0.1585  0.0891 -0.0021
    1DIPC   C4A21776  17.324   6.205   4.517 -0.2376 -0.0964 -0.2114
    1DIPC   C1B21777  16.598   5.358   3.170 -0.3998  0.1500  0.2610
    1DIPC   D2B21778  16.765   4.952   3.368 -0.1837  0.2622 -0.0809
    1DIPC   D3B21779  17.058   4.930   3.833  0.2159  0.0591 -0.1271
    1DIPC   C4B21780  17.159   5.334   3.889  0.1699  0.0485 -0.1855
    1DIPC   NC321781   4.628  25.730   2.458 -0.0648 -0.0092 -0.0805
    1DIPC   PO421782   4.392  26.090   2.614 -0.0678  0.1678  0.4678
    1DIPC   GL121783   4.365  25.890   2.979 -0.2665 -0.0523 -0.2399
    1DIPC   GL221784   4.225  25.675   2.961 -0.2110 -0.4821 -0.2831
    1DIPC   C1A21785   4.324  25.779   3.478  0.0331 -0.0791 -0.3105
    1DIPC   D2A21786   4.144  25.579   3.872 -0.1023  0.2815 -0.1491
    1DIPC   D3A21787   4.481  25.708   4.121  0.1649 -0.1106 -0.4142
    1DIPC   C4A21788   4.638  25.638   4.591  0.2711  0.1549 -0.0692
    1DIPC   C1B21789   4.205  25.332   3.209  0.0660  0.1445 -0.1527
    1DIPC   D2B21790   4.071  25.096   3.599  0.0503  0.0305  0.3212
    1DIPC   D3B21791   3.836  24.743   3.659 -0.0152 -0.0039  0.0025
    1DIPC   C4B21792   3.536  24.750   3.267 -0.0620 -0.1361 -0.0025
    1DIPC   NC321793  27.841  20.213   2.661 -0.1433 -0.2020 -0.1190
    1DIPC   PO421794  27.352  20.156   2.558 -0.1202 -0.2282 -0.0341
    1DIPC   GL121795  27.482  20.199   3.039  0.0112  0.3091 -0.1045
    1DIPC   GL221796  27.353  19.978   3.315 -0.1811  0.2142  0.0635
    1DIPC   C1A21797  27.782  20.290   3.403 -0.1178  0.0005  0.3390
    1DIPC   D2A21798  27.621  20.319   3.822  0.0744  0.0836  0.0447
    1DIPC   D3A21799  27.996  20.564   3.750  0.1630  0.5277 -0.3277
    1DIPC   C4A21800  28.312  20.813   4.014  0.0147 -0.0480  0.0911
    1DIPC   C1B21801  27.334  19.892   3.788 -0.0449  0.1598  0.0395
    1DIPC   D2B21802  27.367  19.911   4.178 -0.1815 -0.1678 -0.1004
    1DIPC   D3B21803  27.650  20.204   4.306 -0.1767  0.1623  0.1898
    1DIPC   C4B21804  28.043  20.342   4.238 -0.0976 -0.2394 -0.1415
    1DIPC   NC321805   8.056  22.728   1.601 -0.0028 -0.0063  0.2148
    1DIPC   PO421806   8.499  22.822   1.666  0.1423  0.1917  0.1214
    1DIPC   GL121807   8.231  22.653   2.114 -0.3751 -0.1947  0.1200
    1DIPC   GL221808   8.234  22.944   2.349 -0.1920  0.0174  0.2448
    1DIPC   C1A21809   7.992  22.435   2.355  0.1401 -0.0229 -0.2208
    1DIPC   D2A21810   7.722  22.548   2.762 -0.2000 -0.0106  0.3655
    1DIPC   D3A21811   8.052  22.650   3.098 -0.2373 -0.0247  0.4355
    1DIPC   C4A21812   8.201  22.441   3.366 -0.1816 -0.1314  0.0154
    1DIPC   C1B21813   8.128  22.937   2.717  0.1868  0.0227  0.1822
    1DIPC   D2B21814   8.085  23.127   3.134  0.2504 -0.0118 -0.2050
    1DIPC   D3B21815   8.063  22.879   3.539  0.0824  0.1101  0.0996
    1DIPC   C4B21816   8.298  23.078   3.781 -0.1852  0.0119 -0.1310
    1DIPC   NC321817   4.427  28.997   3.601 -0.0886 -0.2744 -0.0338
    1DIPC   PO421818   4.883  29.175   3.673  0.3091 -0.0799  0.0540
    1DIPC   GL121819   4.729  29.408   3.955 -0.0680 -0.2775 -0.0943
    1DIPC   GL221820   4.529  29.165   4.036 -0.0829 -0.1106  0.0709
    1DIPC   C1A21821   5.036  29.657   4.238  0.0125  0.1541 -0.2825
    1DIPC   D2A21822   4.876  29.903   4.537 -0.0944 -0.2469 -0.2477
    1DIPC   D3A21823   5.136  29.851   4.871 -0.0946 -0.2327 -0.1156
    1DIPC   C4A21824   5.009  30.105   5.137  0.1583 -0.2221 -0.3032
    1DIPC   C1B21825   4.680  28.905   4.296 -0.3039 -0.1892  0.0007
    1DIPC   D2B21826   4.652  28.960   4.738  0.0776  0.0181  0.1794
    1DIPC   D3B21827   4.771  28.612   4.747 -0.2911  0.0467  0.1105
    1DIPC   C4B21828   4.578  28.331   4.857  0.0269 -0.0347  0.1969
    1DIPC   NC321829  18.000   2.214   2.761 -0.2938 -0.0119 -0.2569
    1DIPC   PO421830  18.429   2.398   2.832 -0.2705 -0.1644 -0.2091
    1DIPC   GL121831  18.174   2.610   3.276 -0.0796  0.0187 -0.0635
    1DIPC   GL221832  17.834   2.451   3.436 -0.1175  0.0019  0.3096
    1DIPC   C1A21833  18.318   2.669   3.678 -0.2007 -0.0902 -0.1879
    1DIPC   D2A21834  18.026   2.981   4.032  0.1887 -0.0209 -0.2485
    1DIPC   D3A21835  18.209   3.442   4.062  0.1599  0.0881  0.2337
    1DIPC   C4A21836  18.022   3.783   4.186  0.0534  0.1528 -0.1004
    1DIPC   C1B21837  17.644   2.632   3.773 -0.1213 -0.2169  0.2577
    1DIPC   D2B21838  17.551   3.086   3.757  0.0373 -0.0829  0.1139
    1DIPC   D3B21839  17.756   3.479   3.820  0.1198  0.1118 -0.0515
    1DIPC   C4B21840  17.459   3.648   4.124 -0.0797 -0.0265 -0.0947
    1DIPC   NC321841   6.780  24.017   2.417 -0.3871 -0.1621  0.0577
    1DIPC   PO421842   6.951  23.719   2.704  0.1598  0.3004  0.2771
    1DIPC   GL121843   7.240  23.673   3.016  0.0998 -0.0470  0.1918
    1DIPC   GL221844   7.247  23.322   2.954 -0.2339  0.1317  0.1849
    1DIPC   C1A21845   7.271  23.671   3.468 -0.2066 -0.3742  0.1445
    1DIPC   D2A21846   7.284  23.625   3.869 -0.3967  0.4257  0.0523
    1DIPC   D3A21847   7.551  23.342   3.777 -0.0659  0.0278  0.0586
    1DIPC   C4A21848   7.830  23.163   4.000 -0.2830 -0.2048  0.0352
    1DIPC   C1B21849   7.120  23.148   3.311 -0.3501 -0.0489 -0.1514
    1DIPC   D2B21850   6.972  23.246   3.680  0.1324  0.2662  0.2908
    1DIPC   D3B21851   6.498  23.393   3.770  0.0904 -0.0822 -0.1044
    1DIPC   C4B21852   6.344  23.254   3.363  0.0766  0.0968 -0.0324
    1DIPC   NC321853   7.750   2.203   3.088  0.0269  0.0148 -0.1403
    1DIPC   PO421854   7.621   2.451   3.465 -0.0520  0.0336 -0.0209
    1DIPC   GL121855   7.571   2.352   3.898 -0.2422  0.2596  0.4071
    1DIPC   GL221856   7.829   2.466   4.034  0.1211  0.0311 -0.0145
    1DIPC   C1A21857   7.184   2.283   4.137 -0.0918 -0.0545 -0.0962
    1DIPC   D2A21858   6.792   2.073   4.290  0.3733 -0.3465 -0.0328
    1DIPC   D3A21859   6.556   2.345   4.178  0.5133 -0.0486  0.4095
    1DIPC   C4A21860   6.348   2.572   4.483  0.0492 -0.1145  0.0956
    1DIPC   C1B21861   7.730   2.339   4.506  0.2033 -0.2663 -0.2060
    1DIPC   D2B21862   7.665   2.352   5.017  0.1818 -0.0749  0.0776
    1DIPC   D3B21863   7.623   1.855   4.832  0.0625  0.0878 -0.1610
    1DIPC   C4B21864   7.297   1.570   4.984  0.0521 -0.5958 -0.0932
    1DIPC   NC321865  21.981  21.440   3.265  0.2947 -0.0443 -0.0208
    1DIPC   PO421866  22.287  21.801   3.373  0.1102  0.2542  0.2818
    1DIPC   GL121867  22.089  21.715   3.738 -0.0568  0.2920 -0.1474
    1DIPC   GL221868  22.298  21.705   3.867 -0.1859  0.4260 -0.1308
    1DIPC   C1A21869  21.891  21.683   4.181  0.2706  0.0071  0.4344
    1DIPC   D2A21870  21.688  21.694   4.523 -0.0596 -0.3103  0.0852
    1DIPC   D3A21871  21.853  21.381   4.650 -0.4748 -0.1521 -0.4208
    1DIPC   C4A21872  22.231  21.480   4.529  0.0617  0.1435 -0.0279
    1DIPC   C1B21873  22.485  21.772   4.229 -0.3172  0.2883 -0.0909
    1DIPC   D2B21874  22.902  21.969   4.127 -0.1281  0.0160  0.0552
    1DIPC   D3B21875  22.869  21.667   3.770 -0.1760  0.0090  0.1838
    1DIPC   C4B21876  22.613  21.294   3.702 -0.0489 -0.0711 -0.2908
    1DIPC   NC321877  28.848  22.798   2.171  0.1039 -0.2312  0.1713
    1DIPC   PO421878  28.670  23.080   2.541 -0.0792 -0.0698  0.0036
    1DIPC   GL121879  28.915  23.013   2.828 -0.2642  0.3670  0.0445
    1DIPC   GL221880  28.893  23.158   3.096  0.1965  0.0376  0.2060
    1DIPC   C1A21881  28.815  22.700   3.140  0.1270  0.1521  0.0945
    1DIPC   D2A21882  28.452  22.604   3.256 -0.2070  0.1270 -0.1349
    1DIPC   D3A21883  28.495  22.580   3.688  0.3237  0.0494 -0.0116
    1DIPC   C4A21884  28.993  22.619   3.903  0.4754 -0.1103  0.2352
    1DIPC   C1B21885  28.677  23.050   3.466  0.1240 -0.0551 -0.1337
    1DIPC   D2B21886  28.600  23.030   3.876 -0.0939 -0.0527  0.1519
    1DIPC   D3B21887  28.753  23.355   4.013  0.0663 -0.2599  0.0761
    1DIPC   C4B21888  28.952  23.265   4.477 -0.2116  0.1697  0.0243
    1DIPC   NC321889   3.927  13.235   2.468  0.0259  0.1797  0.0261
    1DIPC   PO421890   4.313  13.406   2.244  0.0356  0.0834 -0.1596
    1DIPC   GL121891   4.261  13.399   2.776 -0.2017 -0.4260  0.0304
    1DIPC   GL221892   4.520  13.390   2.943 -0.0321  0.2301  0.0378
    1DIPC   C1A21893   4.043  13.226   3.176  0.1575  0.0401 -0.1363
    1DIPC   D2A21894   3.734  13.477   3.470  0.2319  0.1307  0.0934
    1DIPC   D3A21895   3.282  13.407   3.286  0.3709 -0.1603 -0.2002
    1DIPC   C4A21896   2.993  13.819   3.290  0.0963  0.1920  0.2425
    1DIPC   C1B21897   4.307  13.610   3.325 -0.1330  0.1089  0.1040
    1DIPC   D2B21898   4.188  13.558   3.760 -0.2423  0.0560  0.0437
    1DIPC   D3B21899   3.837  13.715   3.906 -0.0725  0.0409  0.0367
    1DIPC   C4B21900   3.570  13.311   3.891  0.2361 -0.1452 -0.2428
    1DIPC   NC321901  18.049  10.458   2.104 -0.1323  0.2885 -0.0119
    1DIPC   PO421902  18.334  10.039   2.246  0.0005 -0.2081 -0.2918
    1DIPC   GL121903  18.337  10.326   2.588  0.2757  0.0255  0.0982
    1DIPC   GL221904  18.214  10.602   2.593  0.2071 -0.2081  0.2998
    1DIPC   C1A21905  18.311  10.089   2.971  0.1377  0.2666 -0.1696
    1DIPC   D2A21906  18.310  10.121   3.376  0.1044 -0.3861  0.2193
    1DIPC   D3A21907  18.478  10.329   3.834  0.4958 -0.2196  0.3670
    1DIPC   C4A21908  18.342  10.154   4.181  0.4127 -0.0541  0.0199
    1DIPC   C1B21909  18.238  10.695   2.938 -0.1576 -0.0579 -0.2140
    1DIPC   D2B21910  18.316  10.598   3.398 -0.5014  0.4372 -0.1430
    1DIPC   D3B21911  18.013  10.765   3.455 -0.4068 -0.1030  0.4461
    1DIPC   C4B21912  17.860  10.784   3.931  0.1593  0.0950 -0.1018
    1DIPC   NC321913   3.770  26.794   2.516  0.1531 -0.0159 -0.0610
    1DIPC   PO421914   3.332  26.771   2.493 -0.1209  0.1254  0.1083
    1DIPC   GL121915   3.298  26.748   2.947  0.0806 -0.0952 -0.0230
    1DIPC   GL221916   3.157  26.956   3.272 -0.1923  0.0130  0.0170
    1DIPC   C1A21917   3.337  26.544   3.352  0.0469 -0.0561 -0.1924
    1DIPC   D2A21918   3.018  26.417   3.699  0.0118 -0.2221 -0.0476
    1DIPC   D3A21919   2.646  26.405   3.457 -0.0129 -0.0468 -0.0605
    1DIPC   C4A21920   2.500  26.661   3.218 -0.2365  0.1785 -0.1724
    1DIPC   C1B21921   3.156  26.896   3.762  0.0289 -0.2046  0.0389
    1DIPC   D2B21922   3.273  26.723   4.133 -0.0653  0.2787 -0.1906
    1DIPC   D3B21923   3.059  26.326   4.215  0.0437  0.1967 -0.1506
    1DIPC   C4B21924   2.629  26.352   4.331 -0.2716 -0.0072 -0.2486
    1DIPC   NC321925  15.310   6.729   3.091  0.1012 -0.2057 -0.0667
    1DIPC   PO421926  14.974   6.747   3.437  0.1991 -0.1182 -0.3612
    1DIPC   GL121927  15.183   6.920   3.730 -0.2578 -0.1301  0.0533
    1DIPC   GL221928  14.946   7.218   3.726  0.1648 -0.0750 -0.1337
    1DIPC   C1A21929  15.204   7.035   4.205  0.0900 -0.2404  0.0064
    1DIPC   D2A21930  15.069   7.176   4.566  0.1094  0.0635  0.1115
    1DIPC   D3A21931  15.329   7.298   4.995 -0.0754 -0.0764 -0.1561
    1DIPC   C4A21932  15.182   7.042   5.407  0.2489 -0.1900 -0.0758
    1DIPC   C1B21933  14.850   7.396   4.170 -0.2334  0.3452 -0.0394
    1DIPC   D2B21934  15.105   7.643   4.381 -0.0417  0.1570 -0.2834
    1DIPC   D3B21935  15.125   7.818   4.009 -0.2919  0.1507 -0.0066
    1DIPC   C4B21936  15.273   8.267   3.949  0.1509  0.0875  0.3014
    1DIPC   NC321937  27.897   3.447   3.044 -0.0118  0.0224 -0.0743
    1DIPC   PO421938  28.168   3.857   3.067 -0.1075  0.0724 -0.2526
    1DIPC   GL121939  28.100   3.723   3.449  0.0666  0.1335 -0.0196
    1DIPC   GL221940  27.764   3.989   3.576  0.1894  0.0332  0.0384
    1DIPC   C1A21941  28.039   3.470   3.894 -0.0184 -0.3065  0.1321
    1DIPC   D2A21942  27.868   3.225   4.219  0.0222 -0.0855 -0.2666
    1DIPC   D3A21943  27.977   3.247   4.658 -0.1399 -0.3270 -0.0162
    1DIPC   C4A21944  28.253   3.537   4.896 -0.2476  0.0521 -0.0909
    1DIPC   C1B21945  27.720   3.901   3.994  0.0068  0.1106  0.0460
    1DIPC   D2B21946  27.613   4.058   4.440  0.2033 -0.0552  0.4484
    1DIPC   D3B21947  27.644   4.469   4.648  0.1304  0.1357 -0.0775
    1DIPC   C4B21948  27.670   4.715   4.945 -0.2981  0.2785 -0.3099
    1DIPC   NC321949  12.067   2.235   3.907 -0.0558  0.2549  0.2163
    1DIPC   PO421950  11.692   2.101   3.790  0.0746 -0.1100 -0.0259
    1DIPC   GL121951  11.723   1.833   4.094  0.0535  0.0650 -0.2180
    1DIPC   GL221952  12.013   1.873   4.252 -0.1099  0.3374 -0.0197
    1DIPC   C1A21953  11.474   1.491   4.203  0.2589  0.2015 -0.2092
    1DIPC   D2A21954  11.408   1.472   4.730  0.2384 -0.0961  0.3504
    1DIPC   D3A21955  10.936   1.407   4.896  0.0531  0.0285  0.2245
    1DIPC   C4A21956  10.780   1.650   5.255  0.3115  0.2854 -0.2905
    1DIPC   C1B21957  11.987   1.980   4.605  0.0855 -0.0659 -0.0835
    1DIPC   D2B21958  12.113   2.088   5.047  0.0544 -0.1093  0.2053
    1DIPC   D3B21959  12.220   2.544   4.836  0.0406  0.1139 -0.0202
    1DIPC   C4B21960  12.210   2.552   4.459  0.2260 -0.1801 -0.4389
    1DIPC   NC321961   1.436   8.806   2.540 -0.0577 -0.2347  0.2935
    1DIPC   PO421962   1.455   8.339   2.713 -0.0800  0.2197 -0.0224
    1DIPC   GL121963   1.326   8.470   3.185 -0.0177  0.1093 -0.1227
    1DIPC   GL221964   1.428   8.203   3.384  0.2880  0.0313 -0.0328
    1DIPC   C1A21965   1.269   8.871   3.425  0.4309 -0.2701  0.2945
    1DIPC   D2A21966   1.547   8.980   3.633 -0.0553  0.0754 -0.0701
    1DIPC   D3A21967   1.750   8.628   3.401 -0.0200 -0.1630  0.0648
    1DIPC   C4A21968   1.967   8.259   3.672 -0.0101  0.0479  0.1474
    1DIPC   C1B21969   1.446   8.321   3.714  0.0192 -0.1250 -0.0508
    1DIPC   D2B21970   1.651   8.618   3.931 -0.1605 -0.3899 -0.0809
    1DIPC   D3B21971   1.318   8.760   4.014  0.1984  0.0866 -0.0324
    1DIPC   C4B21972   1.181   9.083   4.327 -0.1412 -0.0681 -0.0082
    1DIPC   NC321973   8.366  28.249   3.061  0.3480  0.1400  0.1274
    1DIPC   PO421974   8.628  27.918   3.193  0.0641 -0.1503  0.2275
    1DIPC   GL121975   8.236  27.925   3.417  0.0653 -0.0502  0.1421
    1DIPC   GL221976   8.307  28.060   3.710 -0.2526 -0.3799  0.1067
    1DIPC   C1A21977   7.856  27.702   3.498 -0.0227 -0.2205 -0.0094
    1DIPC   D2A21978   7.709  27.368   3.835  0.0408  0.0210  0.0336
    1DIPC   D3A21979   8.048  27.085   3.957 -0.2873 -0.4342 -0.0522
    1DIPC   C4A21980   8.203  26.896   4.339 -0.1376  0.0253 -0.0919
    1DIPC   C1B21981   8.198  28.032   4.201  0.1224  0.1659  0.0043
    1DIPC   D2B21982   8.623  28.045   4.461  0.0757 -0.1402 -0.0784
    1DIPC   D3B21983   8.713  27.674   4.337  0.2786  0.1180 -0.0725
    1DIPC   C4B21984   8.388  27.339   4.411  0.1083  0.0480 -0.1808
    1DIPC   NC321985   6.441   9.879   3.145  0.0036 -0.2187 -0.1711
    1DIPC   PO421986   6.434   9.744   3.623 -0.0485 -0.0434 -0.1890
    1DIPC   GL121987   6.098   9.855   3.964  0.1688 -0.2149  0.0227
    1DIPC   GL221988   5.725   9.980   3.938 -0.1367  0.0007  0.0633
    1DIPC   C1A21989   6.167   9.943   4.344  0.1845 -0.3400 -0.1119
    1DIPC   D2A21990   6.218   9.863   4.810  0.1695 -0.2773  0.2968
    1DIPC   D3A21991   5.911   9.851   5.089  0.0134 -0.0915  0.2306
    1DIPC   C4A21992   5.735   9.410   5.087  0.0793  0.1699  0.2943
    1DIPC   C1B21993   5.585  10.329   4.283  0.2183  0.1830  0.0394
    1DIPC   D2B21994   5.483  10.566   4.639  0.1658 -0.0623 -0.0100
    1DIPC   D3B21995   5.786  10.796   4.979 -0.2277  0.0049  0.0803
    1DIPC   C4B21996   6.097  10.665   5.181  0.0761  0.2015  0.2705
    1DIPC   NC321997  25.381  26.252   2.969 -0.0278  0.0834  0.0837
    1DIPC   PO421998  25.312  25.794   2.801 -0.0790 -0.0162 -0.1023
    1DIPC   GL121999  25.280  25.775   3.194  0.1023 -0.2855  0.1511
    1DIPC   GL222000  25.047  26.026   3.374  0.0245 -0.2297  0.0652
    1DIPC   C1A22001  24.970  25.513   3.540  0.2549 -0.0095  0.0310
    1DIPC   D2A22002  24.546  25.364   3.730  0.2670 -0.2713 -0.1025
    1DIPC   D3A22003  24.693  25.696   4.002  0.0163  0.2549  0.0621
    1DIPC   C4A22004  24.836  26.133   3.901  0.0354  0.1337  0.2106
    1DIPC   C1B22005  25.358  26.063   3.792  0.2707  0.1524 -0.2908
    1DIPC   D2B22006  25.455  26.383   4.104  0.4322 -0.1183  0.1999
    1DIPC   D3B22007  25.607  26.825   4.119  0.2084 -0.0894  0.3893
    1DIPC   C4B22008  25.719  27.133   4.424  0.3545 -0.0253 -0.0409
    1DIPC   NC322009  19.166   0.429   3.031 -0.2066 -0.1760  0.0227
    1DIPC   PO422010  19.429   0.617   3.226  0.0462 -0.3027  0.0094
    1DIPC   GL122011  19.473   0.288   3.454 -0.0036  0.0211 -0.1997
    1DIPC   GL222012  19.561   0.383   3.737 -0.1296  0.0016 -0.3199
    1DIPC   C1A22013  19.694  -0.037   3.382  0.1016 -0.2996 -0.3487
    1DIPC   D2A22014  19.972  -0.204   3.652 -0.5511 -0.1600  0.1601
    1DIPC   D3A22015  20.191  -0.628   3.724  0.0095 -0.0287 -0.0940
    1DIPC   C4A22016  20.277  -0.827   4.097 -0.1045 -0.1862  0.1590
    1DIPC   C1B22017  19.520   0.222   4.125  0.1853 -0.1979  0.1902
    1DIPC   D2B22018  19.515   0.192   4.655 -0.0771  0.3639 -0.0170
    1DIPC   D3B22019  19.295   0.519   4.466  0.1198  0.1260 -0.2195
    1DIPC   C4B22020  19.351   0.680   4.024  0.1145  0.2312  0.2154
    1DIPC   NC322021  16.657   7.418   2.766 -0.0204 -0.1706 -0.3211
    1DIPC   PO422022  16.524   6.958   2.567 -0.2329 -0.1025 -0.0660
    1DIPC   GL122023  16.794   6.818   2.900 -0.2409 -0.0104 -0.0167
    1DIPC   GL222024  16.661   6.692   3.140 -0.0058 -0.1523 -0.2361
    1DIPC   C1A22025  17.152   6.778   3.101  0.1381  0.0029 -0.0227
    1DIPC   D2A22026  17.258   6.743   3.477 -0.0438  0.1255 -0.0973
    1DIPC   D3A22027  17.220   6.639   3.979 -0.1154 -0.1745  0.0787
    1DIPC   C4A22028  17.345   6.742   4.397 -0.2278 -0.2977 -0.0721
    1DIPC   C1B22029  16.904   6.384   3.317  0.1687  0.2622  0.1222
    1DIPC   D2B22030  17.064   6.241   3.678 -0.4133  0.2309 -0.2916
    1DIPC   D3B22031  17.032   5.773   3.588 -0.0116  0.1027  0.1121
    1DIPC   C4B22032  17.025   5.798   3.177  0.0699  0.0956  0.4605
    1DIPC   NC322033   8.071   1.270   3.126 -0.3940  0.1281  0.0345
    1DIPC   PO422034   7.986   1.529   3.484  0.0489 -0.0959  0.1774
    1DIPC   GL122035   7.688   1.366   3.802  0.3010 -0.1156  0.0789
    1DIPC   GL222036   7.832   1.115   4.000 -0.1008  0.0791  0.2289
    1DIPC   C1A22037   7.318   1.459   4.190  0.0440  0.2460 -0.2092
    1DIPC   D2A22038   7.065   1.315   4.576  0.0017  0.1648  0.2085
    1DIPC   D3A22039   7.056   1.105   4.947 -0.3136  0.1069  0.1202
    1DIPC   C4A22040   6.989   0.701   4.972  0.0064  0.2308 -0.3007
    1DIPC   C1B22041   8.057   1.010   4.341  0.1100 -0.0871  0.0699
    1DIPC   D2B22042   8.158   0.975   4.723  0.4043  0.2037  0.0344
    1DIPC   D3B22043   8.382   1.373   4.467  0.0121 -0.2867  0.3599
    1DIPC   C4B22044   8.671   1.351   4.184  0.2685  0.3252  0.2142
    1DIPC   NC322045  21.394   8.806   2.149  0.1917 -0.1810 -0.0452
    1DIPC   PO422046  20.912   8.697   2.266  0.1108  0.0537  0.1023
    1DIPC   GL122047  20.847   8.811   2.811 -0.3699  0.4194  0.1669
    1DIPC   GL222048  20.744   8.445   2.987  0.1250 -0.4109  0.0523
    1DIPC   C1A22049  20.635   9.108   3.100 -0.3838 -0.2121  0.4242
    1DIPC   D2A22050  20.750   9.268   3.524 -0.3232 -0.2290  0.2424
    1DIPC   D3A22051  20.712   9.683   3.688  0.1854 -0.0340 -0.2545
    1DIPC   C4A22052  20.942   9.852   4.082  0.1060 -0.0960 -0.1440
    1DIPC   C1B22053  20.395   8.362   3.192 -0.1165  0.0140  0.0913
    1DIPC   D2B22054  20.102   8.048   3.435 -0.1208 -0.1319  0.0945
    1DIPC   D3B22055  20.157   8.396   3.642  0.0135  0.1898 -0.4507
    1DIPC   C4B22056  20.574   8.516   3.981 -0.3888  0.1174  0.3505
    1DIPC   NC322057  26.026  28.890   3.229  0.0002 -0.1076  0.0547
    1DIPC   PO422058  26.461  29.019   3.272  0.1325  0.0692  0.0377
    1DIPC   GL122059  26.348  29.159   3.601 -0.0374  0.2133  0.3131
    1DIPC   GL222060  26.580  29.410   3.676 -0.1455  0.0314  0.3732
    1DIPC   C1A22061  26.200  29.026   3.990  0.1414 -0.1916 -0.0427
    1DIPC   D2A22062  25.886  28.858   4.219  0.1145 -0.0877  0.0462
    1DIPC   D3A22063  25.699  28.997   4.591 -0.0220 -0.0409  0.0033
    1DIPC   C4A22064  25.868  28.876   4.973 -0.1752 -0.0908 -0.1546
    1DIPC   C1B22065  26.632  29.405   4.149  0.1651  0.0466  0.1612
    1DIPC   D2B22066  26.505  29.382   4.673  0.3496  0.1850  0.0821
    1DIPC   D3B22067  26.183  29.792   4.731  0.1032 -0.3210  0.0677
    1DIPC   C4B22068  26.249  30.031   5.066 -0.0171 -0.0421 -0.2483
    1DIPC   NC322069  17.458  22.986   2.514  0.0023  0.0643 -0.0431
    1DIPC   PO422070  17.239  22.686   2.836  0.4403  0.0939  0.0632
    1DIPC   GL122071  17.112  22.495   3.172 -0.3050 -0.0693 -0.2798
    1DIPC   GL222072  17.013  22.203   3.192 -0.3564  0.2973 -0.2458
    1DIPC   C1A22073  17.146  22.447   3.628  0.5905 -0.1965 -0.1319
    1DIPC   D2A22074  17.101  22.315   3.985 -0.1701  0.3008 -0.1357
    1DIPC   D3A22075  17.280  22.414   4.512  0.1456  0.1619  0.1238
    1DIPC   C4A22076  17.582  22.058   4.661  0.1429 -0.0160  0.2039
    1DIPC   C1B22077  16.980  21.979   3.617  0.0304  0.1455  0.0888
    1DIPC   D2B22078  17.147  21.876   3.888  0.0746 -0.0709  0.1167
    1DIPC   D3B22079  17.364  21.931   4.243 -0.0741 -0.0563 -0.0379
    1DIPC   C4B22080  17.180  21.766   4.482  0.0708 -0.3295  0.2182
    1DIPC   NC322081  24.917   6.077   2.707  0.2660  0.0505 -0.4612
    1DIPC   PO422082  24.808   6.135   3.190 -0.1098 -0.1257  0.0139
    1DIPC   GL122083  24.717   6.188   3.615 -0.1243 -0.1483 -0.0180
    1DIPC   GL222084  24.345   6.291   3.749  0.2247  0.2596  0.2187
    1DIPC   C1A22085  24.975   6.053   4.004  0.1721  0.2082  0.1465
    1DIPC   D2A22086  25.121   6.187   4.372  0.0600  0.1616 -0.1133
    1DIPC   D3A22087  25.536   6.364   4.199 -0.0172  0.0952  0.0558
    1DIPC   C4A22088  25.538   6.249   3.729  0.0687 -0.1498  0.0137
    1DIPC   C1B22089  24.411   6.636   3.996  0.3129 -0.0068  0.3132
    1DIPC   D2B22090  24.608   6.837   4.263  0.1425 -0.1887  0.0104
    1DIPC   D3B22091  24.282   7.109   4.458 -0.2057 -0.2269  0.2969
    1DIPC   C4B22092  23.919   7.248   4.766 -0.0727 -0.1312  0.1189
    1DIPC   NC322093  15.513   0.540   3.372 -0.0971  0.1262 -0.1557
    1DIPC   PO422094  15.558   0.172   3.536  0.1383 -0.0193  0.0897
    1DIPC   GL122095  15.292  -0.042   4.042  0.0896  0.1349 -0.1693
    1DIPC   GL222096  15.097  -0.190   4.279 -0.1835  0.1428 -0.2913
    1DIPC   C1A22097  15.571  -0.208   4.465 -0.2273  0.1489  0.1190
    1DIPC   D2A22098  15.987  -0.208   4.619 -0.0446  0.0295  0.0167
    1DIPC   D3A22099  15.814   0.151   4.868 -0.3320 -0.0374 -0.0013
    1DIPC   C4A22100  15.896   0.530   4.494 -0.1698  0.1449  0.0794
    1DIPC   C1B22101  15.158  -0.093   4.771  0.2267 -0.0777  0.0481
    1DIPC   D2B22102  15.402  -0.056   5.182 -0.1999  0.3127 -0.0867
    1DIPC   D3B22103  15.250  -0.360   5.437  0.1023  0.0678 -0.0571
    1DIPC   C4B22104  15.534  -0.575   5.788 -0.1630 -0.1194  0.0542
    1DIPC   NC322105  28.086  10.255   2.039  0.3255 -0.1082  0.0914
    1DIPC   PO422106  28.171   9.967   2.448  0.1168  0.0187  0.0741
    1DIPC   GL122107  27.969  10.004   2.814 -0.0328 -0.2238  0.0572
    1DIPC   GL222108  28.058   9.943   3.112 -0.2848  0.0378 -0.1930
    1DIPC   C1A22109  27.755  10.400   2.903  0.1910 -0.1356 -0.0962
    1DIPC   D2A22110  27.752  10.773   3.163 -0.3156 -0.2346 -0.3422
    1DIPC   D3A22111  27.635  10.469   3.502 -0.1551  0.2003 -0.0214
    1DIPC   C4A22112  27.281  10.409   3.747  0.1614  0.0178 -0.0762
    1DIPC   C1B22113  28.074  10.279   3.380 -0.1943  0.2435  0.2585
    1DIPC   D2B22114  28.056  10.526   3.740 -0.2414 -0.1481 -0.1660
    1DIPC   D3B22115  27.726  10.767   3.944  0.0566  0.0264 -0.0135
    1DIPC   C4B22116  27.869  11.238   4.040 -0.0571 -0.2451 -0.0486
    1DIPC   NC322117  28.734  28.115   2.823 -0.2453  0.0150  0.1943
    1DIPC   PO422118  28.498  27.725   2.838 -0.3085 -0.0481 -0.0925
    1DIPC   GL122119  28.357  27.862   3.258 -0.0402  0.2333  0.3031
    1DIPC   GL222120  28.229  27.579   3.365 -0.1393  0.3106 -0.1954
    1DIPC   C1A22121  28.162  28.201   3.545  0.2517  0.1251  0.1688
    1DIPC   D2A22122  27.787  28.078   3.763 -0.2120  0.0269  0.1586
    1DIPC   D3A22123  27.746  27.895   4.144  0.0179  0.1136 -0.1841
    1DIPC   C4A22124  27.945  28.151   4.533  0.3435  0.0720  0.0237
    1DIPC   C1B22125  28.328  27.769   3.824 -0.1139 -0.0817  0.0998
    1DIPC   D2B22126  28.735  27.841   3.956 -0.0786  0.0533 -0.1103
    1DIPC   D3B22127  28.955  27.784   4.291 -0.1098 -0.1502 -0.0218
    1DIPC   C4B22128  29.202  28.145   4.428 -0.3538  0.0990  0.0149
    1DIPC   NC322129  21.078   9.127   2.482  0.0242 -0.0200 -0.1135
    1DIPC   PO422130  21.577   9.053   2.535 -0.0542 -0.3456 -0.1125
    1DIPC   GL122131  21.657   9.356   2.935 -0.1383  0.1636 -0.0026
    1DIPC   GL222132  21.766   9.708   2.891  0.1506 -0.0904 -0.1977
    1DIPC   C1A22133  21.727   9.353   3.299 -0.0525  0.1134  0.2117
    1DIPC   D2A22134  21.606   8.997   3.547 -0.0027  0.1036 -0.1203
    1DIPC   D3A22135  21.953   8.817   3.759 -0.4645 -0.1562  0.1298
    1DIPC   C4A22136  22.232   9.052   3.705 -0.1610 -0.1899  0.0716
    1DIPC   C1B22137  21.962   9.778   3.321 -0.1246 -0.0133  0.0836
    1DIPC   D2B22138  22.019  10.036   3.662  0.0015  0.1612  0.0205
    1DIPC   D3B22139  21.953   9.784   4.106 -0.2894  0.0253 -0.3577
    1DIPC   C4B22140  22.183   9.390   4.119  0.0496 -0.0196 -0.0930
    1DIPC   NC322141  22.057  29.647   2.834  0.3259 -0.1180  0.1119
    1DIPC   PO422142  22.162  29.228   2.840 -0.0465 -0.1742 -0.1612
    1DIPC   GL122143  22.206  29.114   3.279  0.2984 -0.1531  0.0657
    1DIPC   GL222144  22.530  29.036   3.432 -0.1050 -0.0255  0.1866
    1DIPC   C1A22145  22.003  28.840   3.569 -0.2424 -0.3129  0.1380
    1DIPC   D2A22146  21.865  28.491   3.702 -0.1124  0.2214  0.1190
    1DIPC   D3A22147  22.115  28.628   4.082 -0.0427  0.2643 -0.2657
    1DIPC   C4A22148  22.159  28.998   4.351  0.0203 -0.1436 -0.2072
    1DIPC   C1B22149  22.605  28.915   3.786 -0.0226 -0.1327 -0.1402
    1DIPC   D2B22150  22.556  28.800   4.153 -0.3247  0.0924 -0.0260
    1DIPC   D3B22151  22.478  28.344   4.343 -0.1159  0.0037  0.0852
    1DIPC   C4B22152  22.705  28.283   4.743  0.1198  0.1444 -0.2571
    1DIPC   NC322153  20.304   2.830   3.000  0.0479 -0.2203  0.0622
    1DIPC   PO422154  20.405   2.594   3.143  0.0828 -0.2164  0.2914
    1DIPC   GL122155  20.311   2.882   3.501  0.1155  0.0283 -0.0851
    1DIPC   GL222156  20.101   3.076   3.431 -0.0121  0.1612 -0.3092
    1DIPC   C1A22157  20.471   3.043   3.876 -0.1412 -0.1361  0.1433
    1DIPC   D2A22158  20.312   3.018   4.318  0.1360  0.4488  0.1883
    1DIPC   D3A22159  20.042   2.717   4.041 -0.2301 -0.0835  0.2190
    1DIPC   C4A22160  20.129   2.211   4.058 -0.1658  0.2780  0.0795
    1DIPC   C1B22161  19.964   3.201   3.851  0.0670 -0.1875 -0.2131
    1DIPC   D2B22162  19.754   3.194   4.241  0.1237  0.0729  0.1601
    1DIPC   D3B22163  19.714   3.528   4.269  0.0724 -0.1978  0.0149
    1DIPC   C4B22164  19.773   3.772   4.579  0.0834 -0.0557  0.0396
    1DIPC   NC322165  16.401  24.178   2.663  0.0643 -0.1568  0.0934
    1DIPC   PO422166  16.675  24.246   3.001  0.0505  0.0458  0.2025
    1DIPC   GL122167  16.712  23.983   3.369  0.1627 -0.1461 -0.2576
    1DIPC   GL222168  16.975  23.974   3.529 -0.0807 -0.3360  0.0491
    1DIPC   C1A22169  16.607  23.620   3.702 -0.1789  0.0948 -0.1453
    1DIPC   D2A22170  16.863  23.310   3.918 -0.0784  0.1191 -0.2107
    1DIPC   D3A22171  16.936  23.276   4.301 -0.1665  0.2817 -0.0377
    1DIPC   C4A22172  16.603  23.210   4.499 -0.1901 -0.0072  0.2719
    1DIPC   C1B22173  17.021  23.844   3.961  0.0016 -0.1224 -0.0614
    1DIPC   D2B22174  17.085  23.942   4.403 -0.2483  0.0652  0.4274
    1DIPC   D3B22175  16.944  23.592   4.635 -0.1297 -0.0691 -0.0033
    1DIPC   C4B22176  17.150  23.211   4.752  0.3815  0.3956 -0.1516
    1DIPC   NC322177  13.773  22.024   2.639 -0.0230  0.1336  0.1261
    1DIPC   PO422178  13.364  21.899   2.586 -0.0464  0.0886  0.1299
    1DIPC   GL122179  13.309  21.675   2.856 -0.0203  0.0508  0.0116
    1DIPC   GL222180  12.993  21.636   2.880  0.0270 -0.1699 -0.3921
    1DIPC   C1A22181  13.466  21.836   3.243 -0.0745  0.0121  0.0594
    1DIPC   D2A22182  13.454  21.951   3.701  0.0504  0.0050 -0.2687
    1DIPC   D3A22183  13.620  22.367   3.680  0.2527 -0.1704  0.0693
    1DIPC   C4A22184  13.780  22.849   3.865  0.2779 -0.0275 -0.0438
    1DIPC   C1B22185  12.983  21.875   3.258 -0.3584 -0.0756 -0.2238
    1DIPC   D2B22186  13.107  22.241   3.486  0.3858 -0.2091 -0.1328
    1DIPC   D3B22187  12.935  21.988   3.757  0.0886 -0.1540  0.1931
    1DIPC   C4B22188  12.601  21.767   3.542 -0.0294 -0.0960 -0.2857
    1DIPC   NC322189  29.811   3.431   2.892 -0.2281 -0.0683  0.0344
    1DIPC   PO422190  29.777   3.836   2.672 -0.2894  0.0266  0.2236
    1DIPC   GL122191  29.783   3.933   3.022 -0.0170  0.2188  0.1052
    1DIPC   GL222192  29.469   3.955   3.283  0.0120 -0.1104 -0.3709
    1DIPC   C1A22193  29.871   4.337   3.300 -0.0320  0.1694 -0.0255
    1DIPC   D2A22194  29.983   4.594   3.715 -0.0531  0.2221 -0.3227
    1DIPC   D3A22195  30.222   4.404   4.071 -0.1485 -0.2114  0.2464
    1DIPC   C4A22196  30.057   4.321   4.442  0.0369 -0.0842 -0.1137
    1DIPC   C1B22197  29.253   3.866   3.623 -0.3163  0.1535  0.1157
    1DIPC   D2B22198  29.509   3.628   3.864 -0.2518  0.1723 -0.3278
    1DIPC   D3B22199  29.362   3.414   4.204  0.0226 -0.3078  0.2307
    1DIPC   C4B22200  28.921   3.205   4.276 -0.1146 -0.0839  0.0468
    1DIPC   NC322201   2.267  19.329   2.202  0.1551  0.2172 -0.0054
    1DIPC   PO422202   1.927  19.496   2.581  0.1037 -0.1240 -0.3957
    1DIPC   GL122203   1.971  19.408   3.006 -0.0685 -0.4537  0.1202
    1DIPC   GL222204   1.859  19.160   3.177 -0.1338 -0.0450  0.0113
    1DIPC   C1A22205   2.359  19.516   3.297  0.2911  0.3586 -0.1503
    1DIPC   D2A22206   2.727  19.734   3.389 -0.0560  0.0410  0.0340
    1DIPC   D3A22207   2.474  20.026   3.203  0.1348 -0.1488 -0.0555
    1DIPC   C4A22208   2.343  20.274   3.464  0.0432  0.0467  0.0918
    1DIPC   C1B22209   1.629  18.883   3.188 -0.1492  0.0594 -0.0969
    1DIPC   D2B22210   1.284  18.666   3.481  0.1570 -0.1811 -0.3090
    1DIPC   D3B22211   1.607  18.857   3.814  0.0478 -0.0736  0.3761
    1DIPC   C4B22212   1.976  18.817   3.590  0.0673 -0.1799 -0.3314
    1DIPC   NC322213   5.676  26.920   2.751 -0.1506  0.0709  0.1060
    1DIPC   PO422214   5.572  27.325   2.756  0.0772  0.3323 -0.1303
    1DIPC   GL122215   5.435  27.099   3.148 -0.3333 -0.1262 -0.0691
    1DIPC   GL222216   5.425  26.845   3.225  0.1664  0.2431  0.0046
    1DIPC   C1A22217   5.374  27.009   3.679 -0.2116  0.5942  0.2212
    1DIPC   D2A22218   5.101  27.186   3.970  0.0649 -0.2202  0.2806
    1DIPC   D3A22219   4.951  26.825   4.112 -0.0786  0.2811  0.1243
    1DIPC   C4A22220   4.995  26.418   3.945 -0.0417  0.0999 -0.1939
    1DIPC   C1B22221   5.681  26.629   3.338  0.0240 -0.3200 -0.1698
    1DIPC   D2B22222   5.915  26.477   3.612  0.0616  0.3217 -0.1211
    1DIPC   D3B22223   5.465  26.516   3.734  0.2298 -0.0457 -0.4522
    1DIPC   C4B22224   5.452  26.753   4.160 -0.0908 -0.0656  0.0866
    1DIPC   NC322225  21.584  28.294   3.278 -0.0577  0.0636  0.1466
    1DIPC   PO422226  21.238  28.498   3.183  0.1396  0.1313 -0.0286
    1DIPC   GL122227  21.420  28.755   3.518  0.0406 -0.1886  0.0051
    1DIPC   GL222228  21.140  28.775   3.667 -0.1648 -0.2405  0.0334
    1DIPC   C1A22229  21.612  28.965   3.906 -0.0843 -0.1182 -0.1549
    1DIPC   D2A22230  21.699  28.890   4.368  0.1109  0.4044 -0.0208
    1DIPC   D3A22231  21.859  28.653   4.675  0.1917 -0.1013  0.2610
    1DIPC   C4A22232  22.175  28.803   5.015 -0.2149  0.0638  0.5025
    1DIPC   C1B22233  21.115  28.838   4.132 -0.2433  0.0124  0.3573
    1DIPC   D2B22234  20.807  29.020   4.445 -0.0101  0.0617 -0.3178
    1DIPC   D3B22235  20.989  28.864   4.744  0.0115 -0.1127 -0.0258
    1DIPC   C4B22236  21.385  28.979   4.791 -0.1174  0.0063 -0.0907
    1DIPC   NC322237  15.001   9.924   2.225  0.0765 -0.2789 -0.2273
    1DIPC   PO422238  15.188   9.652   2.496 -0.1219  0.0200  0.0965
    1DIPC   GL122239  15.309   9.730   2.857 -0.1635  0.0490  0.0207
    1DIPC   GL222240  15.644   9.744   2.892  0.1715 -0.0818 -0.0388
    1DIPC   C1A22241  15.344   9.914   3.346  0.1628 -0.2347  0.0224
    1DIPC   D2A22242  15.520   9.987   3.717  0.2631  0.0375 -0.1967
    1DIPC   D3A22243  15.464  10.362   3.994 -0.1539  0.1484 -0.1051
    1DIPC   C4A22244  15.217  10.215   4.339  0.0878 -0.2878 -0.1033
    1DIPC   C1B22245  15.868   9.620   3.235  0.1446 -0.0824  0.2254
    1DIPC   D2B22246  15.940   9.796   3.644  0.0533  0.2613  0.2320
    1DIPC   D3B22247  16.244   9.734   3.906  0.5538  0.0876  0.1350
    1DIPC   C4B22248  16.359   9.781   4.392 -0.0841 -0.1448 -0.1588
    1DIPC   NC322249   0.770  10.610   2.676  0.2571 -0.2867 -0.0637
    1DIPC   PO422250   0.902  10.680   3.097  0.0229  0.0831  0.2765
    1DIPC   GL122251   0.605  10.790   3.379  0.1622  0.0766  0.2371
    1DIPC   GL222252   0.583  11.058   3.589 -0.0990 -0.1246  0.1218
    1DIPC   C1A22253   0.450  10.518   3.607 -0.1836 -0.2039  0.0689
    1DIPC   D2A22254   0.525  10.071   3.757 -0.0087  0.0797  0.0928
    1DIPC   D3A22255   0.897  10.133   3.825  0.2088 -0.2962  0.2746
    1DIPC   C4A22256   1.052  10.082   4.271 -0.1679 -0.2981  0.2003
    1DIPC   C1B22257   0.511  10.887   4.040  0.0559  0.1825  0.2484
    1DIPC   D2B22258   0.395  10.806   4.473 -0.1159 -0.1669  0.1296
    1DIPC   D3B22259   0.708  10.693   4.750 -0.0256  0.0075 -0.0825
    1DIPC   C4B22260   1.022  10.937   4.864  0.2443  0.1133  0.1516
    1DIPC   NC322261   0.835  16.383   2.158  0.0044  0.1996 -0.1336
    1DIPC   PO422262   0.341  16.486   2.275  0.0031 -0.1180  0.0777
    1DIPC   GL122263   0.574  16.121   2.580 -0.1303 -0.1753 -0.0797
    1DIPC   GL222264   0.798  15.925   2.564 -0.1753  0.2010 -0.0896
    1DIPC   C1A22265   0.338  15.895   2.833 -0.1061 -0.1354 -0.3116
    1DIPC   D2A22266  -0.072  15.967   3.050 -0.1165 -0.0510  0.1750
    1DIPC   D3A22267  -0.285  15.908   3.407 -0.0971 -0.0634 -0.5707
    1DIPC   C4A22268  -0.477  16.292   3.715 -0.3268  0.1469  0.2075
    1DIPC   C1B22269   0.861  16.158   2.991 -0.0904 -0.2128 -0.0273
    1DIPC   D2B22270   0.747  16.384   3.368  0.0022  0.1506 -0.2671
    1DIPC   D3B22271   1.044  16.535   3.301  0.2272  0.1650  0.1202
    1DIPC   C4B22272   1.338  16.289   3.029  0.0337 -0.0057  0.1032
    1DIPC   NC322273  25.096   0.680   3.195  0.0485 -0.0090  0.0856
    1DIPC   PO422274  25.220   0.984   3.593  0.0722 -0.0194  0.1376
    1DIPC   GL122275  25.053   0.720   3.857  0.0414  0.0959  0.2084
    1DIPC   GL222276  24.766   0.824   3.935  0.0679 -0.0943  0.1802
    1DIPC   C1A22277  25.223   0.586   4.222  0.1035 -0.0077 -0.0815
    1DIPC   D2A22278  25.354   0.784   4.576  0.1653  0.0951 -0.0824
    1DIPC   D3A22279  24.999   1.100   4.749 -0.1495 -0.0930  0.4350
    1DIPC   C4A22280  25.074   1.495   4.948 -0.1348  0.0955 -0.1026
    1DIPC   C1B22281  24.830   0.747   4.415  0.1391  0.0456  0.2296
    1DIPC   D2B22282  24.644   0.738   4.819 -0.1126  0.0528 -0.0035
    1DIPC   D3B22283  24.337   0.624   4.659 -0.0493  0.2170  0.0326
    1DIPC   C4B22284  24.022   0.389   4.785 -0.1193  0.3053 -0.0951
    1DIPC   NC322285   5.621  14.859   2.388 -0.1165  0.0166  0.0658
    1DIPC   PO422286   5.980  15.122   2.368  0.3087  0.1180  0.0454
    1DIPC   GL122287   5.779  15.122   2.782  0.3452 -0.0258  0.1707
    1DIPC   GL222288   5.640  15.527   2.731  0.0707  0.0106 -0.0550
    1DIPC   C1A22289   6.009  15.106   3.256 -0.0809 -0.1081  0.0134
    1DIPC   D2A22290   5.814  15.120   3.654 -0.0238  0.1290  0.3507
    1DIPC   D3A22291   5.612  15.001   4.021 -0.0821  0.1787 -0.2357
    1DIPC   C4A22292   5.507  15.256   4.220 -0.0281  0.0913  0.1133
    1DIPC   C1B22293   5.665  15.653   3.202 -0.1845 -0.0533  0.2800
    1DIPC   D2B22294   5.940  15.972   3.509  0.0394 -0.2120  0.0742
    1DIPC   D3B22295   6.327  15.904   3.535 -0.0389 -0.1601  0.2150
    1DIPC   C4B22296   6.405  16.329   3.672  0.2106  0.3014 -0.1783
    1DIPC   NC322297  29.172  11.733   2.493 -0.1441 -0.0438  0.0697
    1DIPC   PO422298  28.767  11.636   2.515  0.0542 -0.0388 -0.1812
    1DIPC   GL122299  28.885  11.679   2.905 -0.0400  0.1557  0.0471
    1DIPC   GL222300  28.667  11.673   3.199  0.2164  0.1349  0.1266
    1DIPC   C1A22301  29.121  11.913   3.324  0.0638 -0.2207  0.2646
    1DIPC   D2A22302  29.113  12.047   3.741  0.1038  0.0771  0.1849
    1DIPC   D3A22303  29.383  12.313   3.447 -0.0684  0.0043 -0.0562
    1DIPC   C4A22304  29.344  12.830   3.562 -0.2107  0.0104  0.4000
    1DIPC   C1B22305  28.354  11.828   3.436 -0.2031 -0.1122  0.2493
    1DIPC   D2B22306  28.103  11.612   3.790 -0.0455 -0.1109  0.2383
    1DIPC   D3B22307  28.366  11.214   3.812  0.1364 -0.2344 -0.1895
    1DIPC   C4B22308  28.711  11.248   4.128  0.1825 -0.1165  0.0606
    1DIPC   NC322309   5.881   8.328   3.623 -0.0332  0.1667  0.0891
    1DIPC   PO422310   5.483   8.447   3.813  0.4856 -0.1102  0.0785
    1DIPC   GL122311   5.187   8.279   4.087  0.2185 -0.2136 -0.1012
    1DIPC   GL222312   4.877   8.095   3.988 -0.1641  0.2007 -0.1872
    1DIPC   C1A22313   5.099   8.181   4.521  0.3657 -0.1506  0.1501
    1DIPC   D2A22314   4.870   8.462   4.845 -0.1709  0.1757  0.0528
    1DIPC   D3A22315   4.595   8.142   4.939  0.0556 -0.1863 -0.1640
    1DIPC   C4A22316   4.345   7.815   4.781  0.1832 -0.0304 -0.0037
    1DIPC   C1B22317   4.494   8.137   4.404  0.0864  0.0872 -0.1285
    1DIPC   D2B22318   4.200   8.310   4.601 -0.1587  0.0588  0.0363
    1DIPC   D3B22319   4.055   8.171   5.043 -0.0266  0.0769 -0.1812
    1DIPC   C4B22320   3.780   8.405   5.313 -0.1185 -0.2516  0.2267
    1DIPC   NC322321   5.520   3.778   3.681 -0.3598  0.3872 -0.1984
    1DIPC   PO422322   5.305   3.340   3.754 -0.3851  0.4092 -0.0170
    1DIPC   GL122323   5.408   3.460   4.146 -0.0895  0.0620 -0.1613
    1DIPC   GL222324   5.613   3.604   4.207 -0.1458  0.1697  0.1666
    1DIPC   C1A22325   5.309   3.646   4.596  0.1112 -0.0078 -0.0223
    1DIPC   D2A22326   5.344   3.583   5.071 -0.0386  0.1342  0.1402
    1DIPC   D3A22327   5.822   3.601   5.365  0.1023 -0.2342  0.0641
    1DIPC   C4A22328   6.006   3.977   5.495  0.0660  0.1371 -0.0041
    1DIPC   C1B22329   5.908   3.361   4.323 -0.2169 -0.0849 -0.0990
    1DIPC   D2B22330   5.879   2.933   4.494  0.1679 -0.2133 -0.0466
    1DIPC   D3B22331   6.110   2.803   4.872 -0.0874 -0.1197 -0.2110
    1DIPC   C4B22332   6.227   2.404   5.067  0.2864  0.1558 -0.1069
    1DIPC   NC322333  14.049  22.632   2.268  0.0217 -0.0683  0.1329
    1DIPC   PO422334  14.163  22.328   2.502 -0.3848 -0.1470 -0.1926
    1DIPC   GL122335  14.081  22.218   2.963 -0.1405 -0.1823 -0.1973
    1DIPC   GL222336  14.081  22.496   3.060  0.0017 -0.2943 -0.1071
    1DIPC   C1A22337  14.085  22.209   3.451  0.0690  0.0603  0.0662
    1DIPC   D2A22338  14.013  22.197   4.052 -0.1973 -0.0716  0.2520
    1DIPC   D3A22339  13.627  22.505   4.215 -0.0339  0.2209 -0.1193
    1DIPC   C4A22340  13.767  22.865   4.368  0.2417  0.4309  0.2378
    1DIPC   C1B22341  14.054  22.782   3.470 -0.0657 -0.0357  0.2038
    1DIPC   D2B22342  14.200  23.019   3.959  0.2169  0.1471  0.0246
    1DIPC   D3B22343  14.277  22.609   4.172  0.1746 -0.2092 -0.0514
    1DIPC   C4B22344  14.358  22.451   4.599 -0.0485 -0.0752  0.0541
    1DIPC   NC322345  19.351  25.662   3.169 -0.0925 -0.3232 -0.0015
    1DIPC   PO422346  19.249  25.242   3.173  0.2460  0.0346 -0.2486
    1DIPC   GL122347  19.321  25.368   3.587 -0.0608 -0.2097 -0.1167
    1DIPC   GL222348  19.704  25.368   3.591 -0.0855 -0.0544  0.1486
    1DIPC   C1A22349  19.433  25.435   4.014 -0.0178 -0.2200 -0.0890
    1DIPC   D2A22350  19.200  25.443   4.461  0.0573  0.0184  0.0242
    1DIPC   D3A22351  19.444  25.748   4.695  0.2094 -0.2147 -0.1522
    1DIPC   C4A22352  19.502  26.159   4.668 -0.1116  0.2067  0.1489
    1DIPC   C1B22353  19.903  25.663   3.825 -0.0260 -0.0997 -0.3512
    1DIPC   D2B22354  20.226  25.852   3.941 -0.1035 -0.2967 -0.1346
    1DIPC   D3B22355  20.083  26.018   4.333  0.0550 -0.0716  0.3657
    1DIPC   C4B22356  19.984  25.779   4.721  0.1694  0.0332  0.3203
    1DIPC   NC322357  19.913  22.069   2.920  0.0481  0.0864  0.1451
    1DIPC   PO422358  19.520  21.670   2.851  0.2273  0.0795  0.0005
    1DIPC   GL122359  19.393  21.456   3.305 -0.2260 -0.0905  0.0254
    1DIPC   GL222360  19.043  21.405   3.301 -0.0616  0.1376  0.0380
    1DIPC   C1A22361  19.325  21.284   3.718  0.3701  0.2877 -0.0568
    1DIPC   D2A22362  19.517  21.099   4.096  0.2844 -0.0157 -0.1688
    1DIPC   D3A22363  19.775  21.075   4.483  0.0294 -0.1013 -0.2186
    1DIPC   C4A22364  19.970  21.530   4.575  0.0280  0.0324 -0.0267
    1DIPC   C1B22365  18.725  21.362   3.762  0.1194  0.0771  0.2201
    1DIPC   D2B22366  18.529  21.182   4.131  0.1313 -0.2257 -0.3944
    1DIPC   D3B22367  18.679  21.349   4.488  0.0416  0.2841  0.1655
    1DIPC   C4B22368  18.620  21.027   4.833  0.0808  0.1631 -0.1190
    1DIPC   NC322369  26.462   0.725   3.062 -0.1820 -0.1173  0.1303
    1DIPC   PO422370  26.573   1.103   3.129 -0.0318 -0.1967  0.1335
    1DIPC   GL122371  26.334   1.292   3.436 -0.2120  0.0348  0.2009
    1DIPC   GL222372  26.483   1.530   3.577 -0.2053 -0.2653 -0.2393
    1DIPC   C1A22373  25.971   1.574   3.687 -0.0316 -0.1195  0.3608
    1DIPC   D2A22374  25.793   1.279   4.036  0.2975  0.0167  0.1573
    1DIPC   D3A22375  25.701   0.887   3.937  0.2561  0.2354 -0.0867
    1DIPC   C4A22376  25.688   0.583   4.233 -0.2025  0.0193  0.0913
    1DIPC   C1B22377  26.780   1.421   3.823 -0.0555 -0.0419 -0.0195
    1DIPC   D2B22378  27.147   1.166   3.646 -0.1355 -0.1419  0.0264
    1DIPC   D3B22379  27.374   1.458   3.498 -0.1293 -0.0612  0.0092
    1DIPC   C4B22380  27.736   1.504   3.606 -0.2490 -0.1882 -0.0242
    1DIPC   NC322381  29.057   1.447   2.966  0.0812 -0.4435 -0.1882
    1DIPC   PO422382  29.292   1.361   3.387 -0.0976 -0.0946  0.0438
    1DIPC   GL122383  29.071   1.319   3.645 -0.1270  0.0718  0.3608
    1DIPC   GL222384  29.238   1.338   3.935  0.0291 -0.2030 -0.3440
    1DIPC   C1A22385  28.692   0.971   3.743 -0.2114  0.0635  0.0048
    1DIPC   D2A22386  28.293   0.942   3.592 -0.1072  0.0954  0.2746
    1DIPC   D3A22387  28.181   1.130   4.018 -0.0811 -0.1122 -0.0771
    1DIPC   C4A22388  28.287   1.272   4.433  0.0065 -0.1590  0.1571
    1DIPC   C1B22389  29.664   1.275   4.129 -0.1030  0.4006  0.1733
    1DIPC   D2B22390  30.055   1.411   4.007 -0.0339 -0.0848 -0.2493
    1DIPC   D3B22391  30.349   1.481   4.355 -0.1966 -0.3359 -0.2122
    1DIPC   C4B22392  30.477   1.294   4.736 -0.2336 -0.0792  0.1083
    1DIPC   NC322393   4.771  24.798   1.995 -0.0392 -0.0161  0.1914
    1DIPC   PO422394   4.762  24.350   2.143  0.0793  0.0325  0.0292
    1DIPC   GL122395   4.789  24.113   2.526 -0.0654 -0.1531  0.1220
    1DIPC   GL222396   4.547  23.870   2.709  0.2057  0.0448  0.0163
    1DIPC   C1A22397   5.005  24.051   2.994 -0.1220  0.2981 -0.0039
    1DIPC   D2A22398   5.120  23.951   3.395  0.2342 -0.4434 -0.0342
    1DIPC   D3A22399   5.330  24.119   3.788 -0.2704  0.2735 -0.2961
    1DIPC   C4A22400   5.116  24.056   4.139  0.1940  0.2287  0.0311
    1DIPC   C1B22401   4.307  23.947   3.043 -0.2881 -0.1948  0.2886
    1DIPC   D2B22402   3.958  23.801   3.231 -0.3349  0.0445 -0.1047
    1DIPC   D3B22403   4.058  23.639   3.655 -0.2088 -0.1289  0.3152
    1DIPC   C4B22404   3.778  23.462   3.938  0.1980 -0.0297 -0.1813
    1DIPC   NC322405  29.026  24.649   2.660 -0.1544 -0.0963  0.4380
    1DIPC   PO422406  28.672  24.701   2.609 -0.0637  0.2522  0.2021
    1DIPC   GL122407  28.814  24.920   3.010  0.2553  0.0032  0.1504
    1DIPC   GL222408  28.955  24.746   3.280  0.0949 -0.1993 -0.0720
    1DIPC   C1A22409  28.790  25.268   3.213 -0.0240  0.0426 -0.1750
    1DIPC   D2A22410  29.027  25.613   3.433  0.1222  0.0547 -0.2445
    1DIPC   D3A22411  28.565  25.574   3.649 -0.3585  0.1265 -0.2931
    1DIPC   C4A22412  28.194  25.365   3.448  0.2685 -0.1341  0.0661
    1DIPC   C1B22413  29.381  24.854   3.559 -0.2250  0.1969  0.1144
    1DIPC   D2B22414  29.784  24.989   3.570 -0.1690  0.1519 -0.0423
    1DIPC   D3B22415  29.658  25.073   3.996 -0.0300 -0.2917  0.2136
    1DIPC   C4B22416  29.284  24.665   4.096  0.1040  0.0306 -0.1182
    1DIPC   NC322417   2.897  15.840   2.176 -0.4564 -0.1967  0.2905
    1DIPC   PO422418   3.352  15.763   2.267  0.0672 -0.0075 -0.0716
    1DIPC   GL122419   3.296  15.627   2.678  0.1646  0.0505  0.0820
    1DIPC   GL222420   3.508  15.844   2.832 -0.2302  0.0414 -0.0766
    1DIPC   C1A22421   3.035  15.432   2.981  0.1850 -0.0383  0.0092
    1DIPC   D2A22422   2.868  15.043   3.090  0.1612 -0.2649  0.1192
    1DIPC   D3A22423   2.906  15.344   3.502  0.1807 -0.2683  0.0829
    1DIPC   C4A22424   3.279  15.457   3.654  0.1235  0.0388 -0.1593
    1DIPC   C1B22425   3.957  15.923   3.026  0.0234  0.0577  0.0176
    1DIPC   D2B22426   4.206  15.641   3.236  0.3134  0.0165  0.0596
    1DIPC   D3B22427   3.973  15.677   3.560 -0.3083  0.3190  0.4536
    1DIPC   C4B22428   3.626  15.774   3.820 -0.1609  0.1413 -0.2355
    1DIPC   NC322429   8.890  28.987   3.471  0.0704  0.0727 -0.2012
    1DIPC   PO422430   8.667  28.608   3.228 -0.3024 -0.0884 -0.0922
    1DIPC   GL122431   8.674  28.424   3.638  0.3224  0.2282 -0.0100
    1DIPC   GL222432   8.782  28.124   3.590 -0.0884 -0.0426 -0.2119
    1DIPC   C1A22433   8.509  28.446   4.104 -0.0272  0.2094 -0.0851
    1DIPC   D2A22434   8.316  28.456   4.534  0.3020 -0.0094  0.2100
    1DIPC   D3A22435   8.202  28.136   4.799  0.0127  0.0860 -0.1336
    1DIPC   C4A22436   8.228  27.799   4.688  0.0527  0.1529  0.0631
    1DIPC   C1B22437   8.804  28.015   3.985 -0.1956 -0.1260 -0.4419
    1DIPC   D2B22438   9.164  27.920   4.242 -0.0431  0.2160  0.2297
    1DIPC   D3B22439   9.074  28.256   4.432  0.0752 -0.3821  0.2841
    1DIPC   C4B22440   9.105  28.263   4.879 -0.0029  0.0462 -0.0917
    1DIPC   NC322441  25.458   6.789   2.923  0.1454 -0.1265 -0.0319
    1DIPC   PO422442  25.307   6.947   3.290 -0.1365  0.0130  0.1124
    1DIPC   GL122443  25.525   6.788   3.678  0.1109 -0.0307 -0.2040
    1DIPC   GL222444  25.900   6.732   3.627 -0.0764  0.1496 -0.1410
    1DIPC   C1A22445  25.835   6.862   4.085 -0.1745  0.1187 -0.1254
    1DIPC   D2A22446  25.921   7.041   4.447 -0.1758  0.3016  0.1887
    1DIPC   D3A22447  26.304   6.956   4.561 -0.1840  0.1251  0.0166
    1DIPC   C4A22448  26.431   6.521   4.566 -0.1473 -0.0093 -0.0596
    1DIPC   C1B22449  26.292   6.774   3.781  0.1158  0.0787 -0.2878
    1DIPC   D2B22450  26.642   6.527   4.062  0.0160 -0.0744 -0.0833
    1DIPC   D3B22451  26.638   6.985   4.180  0.0988  0.1585 -0.2032
    1DIPC   C4B22452  26.924   6.917   4.415 -0.1199 -0.0171  0.1872
    1DIPC   NC322453  29.315  19.804   1.842  0.2253  0.0819  0.0862
    1DIPC   PO422454  29.439  19.644   2.302  0.1972 -0.1563  0.0215
    1DIPC   GL122455  29.443  19.527   2.717  0.1386 -0.0590 -0.2935
    1DIPC   GL222456  29.562  19.307   2.893  0.2083 -0.2033 -0.2626
    1DIPC   C1A22457  29.491  19.768   2.983 -0.1866  0.3944  0.2368
    1DIPC   D2A22458  29.727  20.096   3.074 -0.1377  0.2189 -0.0125
    1DIPC   D3A22459  29.374  20.167   3.418  0.1009 -0.2734  0.2570
    1DIPC   C4A22460  29.278  20.005   3.746  0.1617 -0.0887  0.0128
    1DIPC   C1B22461  29.608  19.316   3.246  0.1689 -0.0120 -0.1486
    1DIPC   D2B22462  29.616  19.716   3.509  0.0984 -0.1581 -0.2156
    1DIPC   D3B22463  29.618  19.425   3.771 -0.0793 -0.4066 -0.0836
    1DIPC   C4B22464  29.912  19.310   4.016 -0.1252 -0.1150  0.1323
    1DIPC   NC322465  11.525   5.593   3.041  0.2377 -0.0479 -0.0908
    1DIPC   PO422466  11.442   5.899   3.485 -0.0667  0.0277 -0.1097
    1DIPC   GL122467  11.288   5.789   3.904  0.1935  0.1306  0.0906
    1DIPC   GL222468  11.397   5.511   3.972 -0.2775 -0.3535  0.1965
    1DIPC   C1A22469  11.058   6.027   4.270  0.0328  0.2320  0.2813
    1DIPC   D2A22470  11.037   6.219   4.694 -0.2042 -0.4504  0.0317
    1DIPC   D3A22471  10.984   5.944   5.025  0.1116 -0.0571  0.1082
    1DIPC   C4A22472  11.161   5.896   5.480  0.0441  0.2588  0.1051
    1DIPC   C1B22473  11.709   5.302   4.181 -0.0199  0.2788  0.0514
    1DIPC   D2B22474  11.786   4.971   4.405  0.2710  0.0830  0.3089
    1DIPC   D3B22475  12.106   5.189   4.566 -0.1956 -0.2865  0.1567
    1DIPC   C4B22476  12.249   5.190   4.910 -0.1223  0.2949 -0.4066
    1DIPC   NC322477  22.011  24.537   3.177 -0.0919  0.4468  0.2884
    1DIPC   PO422478  21.600  24.519   3.418  0.2424 -0.0858  0.0830
    1DIPC   GL122479  21.645  24.701   3.736 -0.2470  0.2191  0.0706
    1DIPC   GL222480  21.504  24.528   3.908  0.3225  0.1450  0.3773
    1DIPC   C1A22481  21.303  24.969   3.948 -0.0157 -0.1153  0.0397
    1DIPC   D2A22482  21.077  25.039   4.314  0.0650  0.1078 -0.0064
    1DIPC   D3A22483  21.261  24.775   4.759  0.0698  0.1132  0.2168
    1DIPC   C4A22484  21.641  24.555   4.775 -0.2055  0.1278  0.2078
    1DIPC   C1B22485  21.573  24.790   4.338 -0.0258 -0.2293 -0.1837
    1DIPC   D2B22486  21.655  25.116   4.686 -0.1647 -0.0834 -0.0355
    1DIPC   D3B22487  21.800  24.893   5.111  0.0423 -0.1106  0.0437
    1DIPC   C4B22488  21.606  24.641   5.429 -0.0747 -0.2354  0.0382
    1DIPC   NC322489  22.667   1.803   3.282  0.2947 -0.3158  0.0407
    1DIPC   PO422490  22.424   2.106   3.392 -0.0583  0.3195  0.0337
    1DIPC   GL122491  22.503   1.915   3.757  0.1235 -0.0140 -0.1221
    1DIPC   GL222492  22.646   1.651   3.757  0.1234 -0.0428  0.1870
    1DIPC   C1A22493  22.377   1.856   4.218 -0.0305  0.1195  0.2638
    1DIPC   D2A22494  22.565   1.629   4.436  0.0204 -0.0797  0.0840
    1DIPC   D3A22495  22.663   1.752   4.778 -0.1115  0.1049 -0.1244
    1DIPC   C4A22496  23.056   1.856   4.882  0.0765 -0.1062 -0.1117
    1DIPC   C1B22497  22.370   1.452   3.900 -0.0543  0.1588  0.0591
    1DIPC   D2B22498  22.229   1.293   4.278  0.2577 -0.1891  0.1260
    1DIPC   D3B22499  22.188   1.407   4.744  0.1013 -0.0398  0.1768
    1DIPC   C4B22500  22.293   1.075   5.107  0.1647 -0.4562  0.2339
    1DIPC   NC322501  27.703   4.782   2.831 -0.1019 -0.3292 -0.2402
    1DIPC   PO422502  27.663   5.260   2.752  0.3235 -0.2389 -0.1007
    1DIPC   GL122503  27.548   5.357   3.205  0.0910  0.0672 -0.0642
    1DIPC   GL222504  27.599   5.587   3.450  0.0060 -0.2859 -0.2384
    1DIPC   C1A22505  27.574   5.076   3.596  0.0751 -0.2948 -0.2511
    1DIPC   D2A22506  27.507   4.847   3.971  0.2673  0.0890 -0.0550
    1DIPC   D3A22507  27.350   4.935   4.375 -0.2904  0.4694 -0.0821
    1DIPC   C4A22508  26.953   5.004   4.425 -0.1527  0.2077 -0.1065
    1DIPC   C1B22509  27.722   5.656   3.876  0.1401  0.0082  0.1917
    1DIPC   D2B22510  27.923   5.745   4.254  0.1484 -0.0519 -0.1594
    1DIPC   D3B22511  27.841   5.874   4.683  0.0423  0.1131  0.0689
    1DIPC   C4B22512  28.220   5.889   5.135  0.1525 -0.1283 -0.0827
    1DIPC   NC322513  24.409   4.443   3.016  0.2230  0.2104  0.0233
    1DIPC   PO422514  24.382   4.489   3.480  0.1390 -0.0192 -0.1032
    1DIPC   GL122515  24.528   4.219   3.768  0.0995 -0.0347  0.2039
    1DIPC   GL222516  24.238   3.909   3.739  0.3164 -0.0152 -0.0748
    1DIPC   C1A22517  24.598   4.416   4.140 -0.1781  0.1007 -0.2832
    1DIPC   D2A22518  24.658   4.652   4.642 -0.0292 -0.1123  0.3219
    1DIPC   D3A22519  24.874   4.953   4.678 -0.0568 -0.1022 -0.4569
    1DIPC   C4A22520  25.208   4.930   4.741  0.2576  0.0755  0.0905
    1DIPC   C1B22521  24.387   3.907   4.211 -0.2685 -0.2025 -0.3893
    1DIPC   D2B22522  24.571   4.147   4.693  0.2471 -0.0689  0.1177
    1DIPC   D3B22523  24.374   3.850   4.980 -0.0180  0.1745  0.1024
    1DIPC   C4B22524  24.365   3.440   4.952  0.0399  0.2920  0.0699
    1DIPC   NC322525  11.564  26.033   2.393 -0.0628  0.1960  0.1552
    1DIPC   PO422526  11.845  26.054   2.775 -0.1065 -0.1356 -0.1530
    1DIPC   GL122527  11.750  25.562   2.732 -0.0874 -0.5563 -0.0449
    1DIPC   GL222528  11.520  25.559   2.969  0.0264  0.0397  0.1194
    1DIPC   C1A22529  11.565  25.170   2.720 -0.2329  0.0925 -0.2624
    1DIPC   D2A22530  11.161  25.032   3.029  0.2295 -0.1291 -0.1613
    1DIPC   D3A22531  11.155  24.766   3.399 -0.2897  0.0423 -0.0335
    1DIPC   C4A22532  11.063  24.682   3.879  0.0297  0.0094  0.3748
    1DIPC   C1B22533  11.221  25.427   3.313  0.1326  0.0031  0.1666
    1DIPC   D2B22534  10.989  25.241   3.506 -0.3960  0.2036 -0.1783
    1DIPC   D3B22535  10.661  25.425   3.550 -0.0213 -0.1066  0.3211
    1DIPC   C4B22536  10.537  25.523   3.155  0.0917 -0.0091  0.1432
    1DIPC   NC322537  21.414  23.969   3.408 -0.0468 -0.0935  0.2885
    1DIPC   PO422538  21.029  23.655   3.526  0.3941  0.0712  0.0400
    1DIPC   GL122539  20.801  23.672   3.927 -0.0760  0.0942  0.0675
    1DIPC   GL222540  21.013  23.684   4.218  0.1461  0.0911  0.5676
    1DIPC   C1A22541  20.504  23.766   4.242 -0.0205  0.0291  0.0009
    1DIPC   D2A22542  20.132  23.877   4.498 -0.1341 -0.1775 -0.3102
    1DIPC   D3A22543  20.057  24.189   4.184 -0.2099 -0.2404 -0.2435
    1DIPC   C4A22544  19.733  24.410   4.335  0.0630 -0.0391  0.2713
    1DIPC   C1B22545  21.216  23.695   4.583 -0.1691 -0.1488  0.2896
    1DIPC   D2B22546  21.470  23.756   4.918  0.0244  0.1575 -0.3116
    1DIPC   D3B22547  21.593  24.164   5.051  0.1500  0.2114  0.1681
    1DIPC   C4B22548  21.239  24.389   5.155  0.0694  0.1675 -0.2492
    1DIPC   NC322549   3.178   0.988   2.554 -0.0097  0.1084 -0.1086
    1DIPC   PO422550   3.197   0.631   2.853 -0.1145 -0.1104 -0.0321
    1DIPC   GL122551   3.165   0.607   3.339  0.1923 -0.3924  0.2772
    1DIPC   GL222552   2.962   0.481   3.514  0.2508  0.0693 -0.0306
    1DIPC   C1A22553   3.251   0.743   3.804 -0.2882  0.1074 -0.4523
    1DIPC   D2A22554   3.604   0.620   4.051  0.0594  0.0569  0.0709
    1DIPC   D3A22555   3.580   0.499   4.444 -0.2882  0.1980 -0.0367
    1DIPC   C4A22556   3.917   0.278   4.572 -0.1714  0.3337 -0.1653
    1DIPC   C1B22557   2.731   0.641   3.848 -0.0475 -0.0957 -0.0025
    1DIPC   D2B22558   2.524   0.774   4.311  0.2466  0.0122 -0.0317
    1DIPC   D3B22559   2.240   0.602   4.584 -0.0707 -0.2061 -0.0411
    1DIPC   C4B22560   2.322   0.623   4.992  0.0219 -0.3132 -0.0749
    1DIPC   NC322561  29.487  17.389   2.023  0.0106 -0.2830 -0.2018
    1DIPC   PO422562  29.153  17.200   2.295 -0.3062 -0.0228  0.2703
    1DIPC   GL122563  29.303  17.365   2.667 -0.0787  0.0016  0.1750
    1DIPC   GL222564  29.598  17.532   2.570  0.0382 -0.2199 -0.2418
    1DIPC   C1A22565  29.488  17.422   3.076 -0.1551 -0.0620  0.0399
    1DIPC   D2A22566  29.349  17.482   3.518 -0.0555 -0.1058 -0.0027
    1DIPC   D3A22567  29.738  17.368   3.783  0.0519  0.1680 -0.5352
    1DIPC   C4A22568  29.758  17.651   4.100  0.0853 -0.1871 -0.3701
    1DIPC   C1B22569  29.985  17.507   2.683  0.1650  0.1028  0.1157
    1DIPC   D2B22570  30.473  17.458   2.794 -0.2082  0.0445  0.1585
    1DIPC   D3B22571  30.405  17.735   2.952  0.0240 -0.3546 -0.0582
    1DIPC   C4B22572  29.960  17.932   3.063 -0.0027  0.2387 -0.1994
    1DIPC   NC322573   3.195  16.726   2.119 -0.2020 -0.0053  0.0219
    1DIPC   PO422574   3.130  16.238   2.121  0.2266  0.0040  0.0427
    1DIPC   GL122575   3.120  16.094   2.535  0.0299  0.0209 -0.1104
    1DIPC   GL222576   3.053  16.493   2.530  0.0336 -0.0073 -0.2150
    1DIPC   C1A22577   3.041  16.079   2.949  0.3480  0.3121 -0.1666
    1DIPC   D2A22578   2.783  16.277   3.243 -0.3344  0.1701 -0.1039
    1DIPC   D3A22579   2.702  16.330   3.691  0.0137  0.1504  0.2723
    1DIPC   C4A22580   2.999  16.544   3.971 -0.0650  0.0374  0.2513
    1DIPC   C1B22581   3.100  16.628   2.955 -0.1752 -0.1328  0.1593
    1DIPC   D2B22582   3.148  16.532   3.427  0.0180 -0.2913  0.2981
    1DIPC   D3B22583   3.514  16.531   3.646 -0.0388 -0.0200  0.3367
    1DIPC   C4B22584   3.628  16.990   3.702  0.2075  0.2328  0.0711
    1DIPC   NC322585   5.948   6.176   3.567 -0.2718  0.0104 -0.2458
    1DIPC   PO422586   5.553   5.890   3.701 -0.1878  0.2628  0.1016
    1DIPC   GL122587   5.350   5.624   4.049  0.0585  0.1464  0.1698
    1DIPC   GL222588   5.645   5.639   4.278  0.0179  0.2694  0.4239
    1DIPC   C1A22589   5.134   5.244   4.126 -0.1219  0.1508 -0.1755
    1DIPC   D2A22590   5.128   4.977   4.472 -0.1180  0.1101 -0.4084
    1DIPC   D3A22591   5.228   5.473   4.535 -0.1396 -0.0406 -0.0990
    1DIPC   C4A22592   5.416   5.726   4.765  0.1038 -0.2797 -0.3545
    1DIPC   C1B22593   5.862   5.535   4.700  0.0368  0.3382  0.0622
    1DIPC   D2B22594   5.877   5.544   5.194 -0.2234  0.1507 -0.0982
    1DIPC   D3B22595   6.095   5.362   5.528 -0.4948 -0.0023  0.1910
    1DIPC   C4B22596   6.080   5.367   6.016  0.0515  0.0769 -0.0780
    1DIPC   NC322597   2.347  15.946   2.076 -0.0440 -0.0591  0.1483
    1DIPC   PO422598   2.073  16.254   1.959  0.0325 -0.2476 -0.0320
    1DIPC   GL122599   2.198  16.238   2.470 -0.4180  0.2620  0.2372
    1DIPC   GL222600   2.355  16.410   2.613  0.1253  0.0962  0.2092
    1DIPC   C1A22601   2.149  16.003   2.951 -0.1044  0.0664  0.0883
    1DIPC   D2A22602   2.282  16.059   3.340 -0.1598  0.0294 -0.2293
    1DIPC   D3A22603   2.279  15.819   3.751  0.1306  0.1640 -0.0750
    1DIPC   C4A22604   2.002  15.850   4.071  0.2794 -0.0710 -0.0943
    1DIPC   C1B22605   2.658  16.474   2.831 -0.0931  0.4185 -0.0542
    1DIPC   D2B22606   2.696  16.775   3.274 -0.0724  0.2461  0.0777
    1DIPC   D3B22607   2.699  16.973   3.667 -0.1141 -0.1022 -0.0610
    1DIPC   C4B22608   2.267  16.996   3.980  0.4146  0.1820  0.1298
    1DIPC   NC322609  11.364  27.550   2.913  0.0305 -0.2032  0.1286
    1DIPC   PO422610  11.267  27.310   3.241 -0.3022 -0.1442  0.0714
    1DIPC   GL122611  11.343  27.090   3.636 -0.0773 -0.0695  0.0082
    1DIPC   GL222612  11.603  27.141   3.822 -0.0588  0.0097  0.2835
    1DIPC   C1A22613  11.060  26.893   4.021  0.0892 -0.2369  0.0825
    1DIPC   D2A22614  11.077  26.675   4.417 -0.1556  0.3097 -0.1922
    1DIPC   D3A22615  10.858  26.786   4.846 -0.0619 -0.1736 -0.2108
    1DIPC   C4A22616  10.595  27.205   4.773 -0.0532  0.3841 -0.1903
    1DIPC   C1B22617  11.420  27.113   4.242  0.1242 -0.1068 -0.1326
    1DIPC   D2B22618  11.026  27.153   4.493 -0.3038 -0.1491  0.2041
    1DIPC   D3B22619  11.358  27.088   4.727 -0.2303  0.1173  0.0685
    1DIPC   C4B22620  11.639  26.735   4.576  0.1849 -0.0799  0.3038
    1DIPC   NC322621  25.032  19.412   2.552 -0.1829  0.2206 -0.0410
    1DIPC   PO422622  25.183  19.773   2.623 -0.0440 -0.1817 -0.0483
    1DIPC   GL122623  25.142  19.715   3.002 -0.0458  0.0747  0.1235
    1DIPC   GL222624  24.831  19.944   3.035  0.0473  0.1953 -0.3238
    1DIPC   C1A22625  25.369  19.665   3.378  0.1073  0.0859 -0.2731
    1DIPC   D2A22626  25.699  19.855   3.499 -0.1613  0.1062  0.2977
    1DIPC   D3A22627  25.896  19.858   3.896 -0.0598 -0.0180  0.1278
    1DIPC   C4A22628  25.665  20.018   4.263 -0.2856 -0.2345  0.2145
    1DIPC   C1B22629  24.846  19.954   3.434 -0.3891  0.1816 -0.1898
    1DIPC   D2B22630  24.802  20.125   3.947  0.0845  0.1089  0.1258
    1DIPC   D3B22631  25.146  20.224   4.189  0.1375  0.2796  0.0966
    1DIPC   C4B22632  25.265  20.507   4.441  0.0378 -0.1360  0.1915
    1DIPC   NC322633   6.295  23.177   2.031 -0.0421  0.0450  0.0683
    1DIPC   PO422634   6.194  22.934   2.370 -0.0858 -0.1830  0.2569
    1DIPC   GL122635   6.098  22.986   2.822  0.0580 -0.0155 -0.1968
    1DIPC   GL222636   5.928  23.237   2.978  0.0174 -0.3516 -0.2607
    1DIPC   C1A22637   5.921  22.787   3.319 -0.2164 -0.0393 -0.0795
    1DIPC   D2A22638   5.895  22.843   3.703  0.0036 -0.0207 -0.1386
    1DIPC   D3A22639   6.002  23.256   3.728 -0.0864 -0.3662  0.1306
    1DIPC   C4A22640   6.019  23.561   4.078 -0.1817  0.2662 -0.0402
    1DIPC   C1B22641   6.014  23.622   3.284 -0.1838 -0.2666 -0.0832
    1DIPC   D2B22642   6.210  23.804   3.613  0.1415  0.0550 -0.1050
    1DIPC   D3B22643   5.879  24.127   3.629  0.3279  0.0145  0.1872
    1DIPC   C4B22644   5.935  24.412   3.892 -0.1934 -0.0830 -0.1367
    1DIPC   NC322645  24.577  15.620   2.011 -0.0296 -0.1636  0.0718
    1DIPC   PO422646  24.875  15.936   2.129  0.4531 -0.1481  0.0111
    1DIPC   GL122647  24.666  16.116   2.462  0.0442  0.0072  0.0744
    1DIPC   GL222648  24.604  16.044   2.779  0.2956  0.0335 -0.1242
    1DIPC   C1A22649  24.817  16.511   2.691  0.1023  0.2911 -0.0257
    1DIPC   D2A22650  24.867  16.961   3.020  0.0575  0.1373  0.4128
    1DIPC   D3A22651  24.984  16.912   3.397  0.1102 -0.0407 -0.2409
    1DIPC   C4A22652  25.471  16.844   3.385 -0.1325  0.1237  0.0835
    1DIPC   C1B22653  24.445  16.129   3.127 -0.0935 -0.2013  0.1091
    1DIPC   D2B22654  24.371  16.370   3.502  0.1410 -0.0563  0.0378
    1DIPC   D3B22655  24.368  15.995   4.008  0.2794 -0.0492 -0.1432
    1DIPC   C4B22656  24.663  15.834   4.271  0.1356  0.1680 -0.6480
    1DIPC   NC322657  29.056   6.146   2.772  0.4629  0.2910 -0.2528
    1DIPC   PO422658  28.864   5.790   2.864  0.0041 -0.0089  0.2194
    1DIPC   GL122659  28.985   5.980   3.249 -0.0019  0.2291  0.2341
    1DIPC   GL222660  28.727   5.925   3.495  0.1787  0.1673  0.1844
    1DIPC   C1A22661  29.219   5.862   3.523 -0.1979 -0.0075  0.2441
    1DIPC   D2A22662  29.449   5.759   3.835 -0.1499  0.4380 -0.0747
    1DIPC   D3A22663  29.790   5.707   4.029  0.1135 -0.1102  0.0507
    1DIPC   C4A22664  29.896   5.982   4.416  0.2276 -0.2890  0.1939
    1DIPC   C1B22665  28.269   5.859   3.651 -0.1993  0.0344  0.0540
    1DIPC   D2B22666  27.946   6.197   3.845  0.4156  0.0726 -0.0600
    1DIPC   D3B22667  28.065   6.256   4.249  0.1417  0.0989 -0.1264
    1DIPC   C4B22668  28.222   6.228   4.588 -0.1483 -0.3173 -0.0211
    1DIPC   NC322669  26.130   0.072   2.918 -0.0694 -0.2789 -0.0438
    1DIPC   PO422670  25.741  -0.113   3.140 -0.1584  0.2548 -0.1354
    1DIPC   GL122671  25.811   0.158   3.531 -0.0805 -0.1621 -0.0958
    1DIPC   GL222672  26.062   0.282   3.801  0.1521  0.0382  0.1854
    1DIPC   C1A22673  25.497   0.284   3.889 -0.0041 -0.0970  0.1490
    1DIPC   D2A22674  25.285   0.119   4.198 -0.1691  0.1070  0.1363
    1DIPC   D3A22675  25.436   0.250   4.551  0.0425 -0.0049  0.1292
    1DIPC   C4A22676  25.204   0.067   4.925 -0.0395  0.0776 -0.3347
    1DIPC   C1B22677  26.079   0.238   4.196 -0.0998  0.1932  0.0663
    1DIPC   D2B22678  26.121   0.478   4.598  0.1062  0.0986 -0.0955
    1DIPC   D3B22679  26.165   0.797   4.300 -0.0052  0.1624  0.1792
    1DIPC   C4B22680  26.033   1.156   4.491  0.2949  0.1866 -0.0044
    1DIPC   NC322681  17.630  27.792   3.583 -0.2487 -0.0838 -0.2681
    1DIPC   PO422682  17.929  28.000   3.431 -0.0021 -0.2562  0.1938
    1DIPC   GL122683  18.108  27.902   3.816  0.1345 -0.0270 -0.2549
    1DIPC   GL222684  18.426  27.973   3.827  0.2024  0.0027  0.1204
    1DIPC   C1A22685  18.066  27.866   4.175  0.1110  0.1776  0.2754
    1DIPC   D2A22686  18.206  27.822   4.592  0.3045 -0.0886  0.0657
    1DIPC   D3A22687  18.566  27.814   4.775  0.2788 -0.2336  0.0800
    1DIPC   C4A22688  18.639  28.068   5.199 -0.1546  0.1209 -0.0094
    1DIPC   C1B22689  18.558  28.075   4.272 -0.0379  0.0173  0.2858
    1DIPC   D2B22690  18.829  28.000   4.427 -0.2371 -0.2664  0.3363
    1DIPC   D3B22691  18.901  27.776   4.050  0.0894 -0.3208 -0.4644
    1DIPC   C4B22692  19.218  27.609   4.083  0.2529  0.0452 -0.1270
    1DIPC   NC322693   7.917  14.675   2.370  0.0677 -0.1897  0.0031
    1DIPC   PO422694   7.679  14.491   2.704  0.0794  0.2815 -0.1072
    1DIPC   GL122695   7.677  14.838   2.888 -0.1532  0.1825  0.0094
    1DIPC   GL222696   7.439  14.720   3.071 -0.0457 -0.0052  0.1063
    1DIPC   C1A22697   7.652  15.322   3.010  0.3401 -0.1968 -0.0292
    1DIPC   D2A22698   7.582  15.692   3.274  0.0679  0.2489 -0.2459
    1DIPC   D3A22699   7.690  15.406   3.564 -0.2778  0.2917 -0.1098
    1DIPC   C4A22700   7.995  15.349   3.823 -0.1565  0.1815  0.0281
    1DIPC   C1B22701   7.442  14.919   3.407  0.0539 -0.0296 -0.1360
    1DIPC   D2B22702   7.455  14.931   3.792  0.0570 -0.0272  0.0424
    1DIPC   D3B22703   7.132  15.059   4.156 -0.0520  0.1482  0.1241
    1DIPC   C4B22704   6.734  14.913   4.326  0.0358 -0.1565 -0.1184
    1DIPC   NC322705  25.834  13.823   1.910 -0.2906 -0.1014 -0.1245
    1DIPC   PO422706  26.130  13.613   2.133 -0.1513 -0.3169  0.0859
    1DIPC   GL122707  25.882  13.776   2.412  0.2550 -0.1968 -0.0428
    1DIPC   GL222708  25.962  13.616   2.711 -0.1763 -0.0645 -0.0070
    1DIPC   C1A22709  25.667  14.088   2.733  0.0453 -0.1161  0.0651
    1DIPC   D2A22710  25.484  14.479   2.762 -0.1355  0.4747  0.0385
    1DIPC   D3A22711  25.831  14.684   2.907  0.3326 -0.0490  0.2547
    1DIPC   C4A22712  26.180  14.548   2.977  0.1249  0.0218 -0.3137
    1DIPC   C1B22713  25.982  13.882   3.079  0.2957  0.0741  0.1843
    1DIPC   D2B22714  25.768  14.269   3.202  0.4973  0.0718  0.3268
    1DIPC   D3B22715  25.530  13.939   3.386  0.1568  0.0245 -0.1490
    1DIPC   C4B22716  25.227  13.974   3.673  0.0067  0.0524  0.0376
    1DIPC   NC322717  18.536   6.347   2.798 -0.1537 -0.1481 -0.0343
    1DIPC   PO422718  18.118   6.413   2.757  0.3889 -0.3031  0.4063
    1DIPC   GL122719  18.248   6.449   3.247 -0.0002 -0.1276  0.1217
    1DIPC   GL222720  17.930   6.533   3.183 -0.0919  0.1206  0.0884
    1DIPC   C1A22721  18.272   6.823   3.496 -0.0010  0.1625 -0.0147
    1DIPC   D2A22722  18.200   7.097   3.802 -0.2450  0.0555 -0.1382
    1DIPC   D3A22723  17.892   7.207   3.869  0.2120  0.2009  0.0100
    1DIPC   C4A22724  17.659   7.213   4.406  0.0286  0.0091 -0.2085
    1DIPC   C1B22725  17.614   6.396   3.454  0.0539 -0.1702 -0.4376
    1DIPC   D2B22726  17.580   6.238   3.840  0.0824  0.0028  0.1608
    1DIPC   D3B22727  17.704   6.373   4.194 -0.0842  0.0745 -0.1708
    1DIPC   C4B22728  17.947   6.667   4.246 -0.0026  0.0709 -0.0828
    1DIPC   NC322729  26.787  29.790   3.389 -0.1551 -0.0259  0.1088
    1DIPC   PO422730  26.661  30.092   3.250 -0.0049 -0.2508  0.0823
    1DIPC   GL122731  26.560  30.195   3.664 -0.0047 -0.3700 -0.2981
    1DIPC   GL222732  26.580  29.869   3.905 -0.2175 -0.0505  0.0798
    1DIPC   C1A22733  26.392  30.486   3.775 -0.1917 -0.1123  0.1026
    1DIPC   D2A22734  26.318  30.920   3.961  0.0122 -0.3511  0.0511
    1DIPC   D3A22735  26.576  30.936   4.327  0.2179 -0.1828  0.0251
    1DIPC   C4A22736  26.979  30.864   4.153  0.0747 -0.0339  0.1715
    1DIPC   C1B22737  26.527  29.810   4.360 -0.0202 -0.0390 -0.0636
    1DIPC   D2B22738  26.712  29.819   4.765 -0.2431  0.3278 -0.3350
    1DIPC   D3B22739  26.662  30.283   4.813  0.1666  0.0594 -0.0767
    1DIPC   C4B22740  26.906  30.647   4.558 -0.0843  0.2911 -0.1598
    1DIPC   NC322741  18.412   5.485   2.820 -0.1932  0.2202 -0.2504
    1DIPC   PO422742  18.705   5.552   3.137  0.4378 -0.1160 -0.1003
    1DIPC   GL122743  18.759   5.567   3.580 -0.2012  0.2674  0.0016
    1DIPC   GL222744  19.003   5.369   3.642  0.2940  0.2362 -0.0463
    1DIPC   C1A22745  18.564   5.566   3.964 -0.0530  0.0795 -0.2826
    1DIPC   D2A22746  18.375   5.496   4.444  0.0101  0.2137  0.1450
    1DIPC   D3A22747  18.086   5.467   4.080 -0.1454  0.0996 -0.2064
    1DIPC   C4A22748  17.684   5.263   4.021 -0.1120  0.1535  0.2868
    1DIPC   C1B22749  18.905   5.232   4.081 -0.0016 -0.1443  0.1779
    1DIPC   D2B22750  18.830   5.113   4.447 -0.0632  0.3026  0.5103
    1DIPC   D3B22751  19.043   4.842   4.640  0.1826 -0.2265 -0.0263
    1DIPC   C4B22752  18.934   4.493   4.778 -0.0392  0.1899  0.3452
    1DIPC   NC322753  28.387  22.324   2.227  0.3858 -0.0743  0.0497
    1DIPC   PO422754  28.776  22.404   2.451 -0.0723  0.1526 -0.2566
    1DIPC   GL122755  29.086  22.492   2.729 -0.1140 -0.0226  0.1146
    1DIPC   GL222756  29.380  22.231   2.774 -0.2339  0.0027 -0.1558
    1DIPC   C1A22757  29.307  22.689   3.003  0.1385  0.2026 -0.1384
    1DIPC   D2A22758  29.162  22.826   3.438  0.3601  0.1809  0.0302
    1DIPC   D3A22759  29.488  22.537   3.526 -0.0124 -0.2044 -0.0639
    1DIPC   C4A22760  29.812  22.349   3.229  0.3546  0.1012  0.1142
    1DIPC   C1B22761  29.371  22.092   3.231 -0.0326 -0.1288  0.0637
    1DIPC   D2B22762  29.428  22.075   3.683 -0.0449  0.0930  0.1140
    1DIPC   D3B22763  29.002  22.090   3.949  0.0830 -0.0242  0.0895
    1DIPC   C4B22764  28.990  22.135   4.369  0.0041 -0.1850 -0.0971
    1DIPC   NC322765  12.088  27.567   3.033  0.2664 -0.0250 -0.4553
    1DIPC   PO422766  12.168  27.684   3.464  0.1069  0.0552  0.2585
    1DIPC   GL122767  12.166  27.348   3.750 -0.0852 -0.1880 -0.1233
    1DIPC   GL222768  12.098  27.504   4.020  0.0713 -0.2644 -0.0673
    1DIPC   C1A22769  12.451  27.153   4.061 -0.1350 -0.1195 -0.0132
    1DIPC   D2A22770  12.514  27.045   4.450  0.0563 -0.0383 -0.4880
    1DIPC   D3A22771  12.627  26.852   4.731  0.1973  0.1476  0.0147
    1DIPC   C4A22772  12.486  27.110   5.118  0.3068  0.2859  0.1340
    1DIPC   C1B22773  11.890  27.266   4.285  0.0040  0.3591  0.3019
    1DIPC   D2B22774  12.082  27.059   4.730 -0.0733 -0.0016 -0.0081
    1DIPC   D3B22775  12.199  26.575   4.927  0.0115 -0.2811 -0.2416
    1DIPC   C4B22776  12.475  26.334   4.753  0.0238 -0.1422 -0.1537
    1DIPC   NC322777  20.881   0.553   3.190 -0.0891  0.0711 -0.1484
    1DIPC   PO422778  21.224   0.829   3.155 -0.3191  0.0737  0.0297
    1DIPC   GL122779  21.224   0.597   3.508 -0.1680  0.0668 -0.1387
    1DIPC   GL222780  21.208   0.905   3.644 -0.0741  0.1182  0.0949
    1DIPC   C1A22781  21.211   0.259   3.803  0.4584 -0.1948  0.0272
    1DIPC   D2A22782  20.924  -0.071   3.962  0.1535  0.3166 -0.0444
    1DIPC   D3A22783  20.539  -0.071   4.152  0.0201 -0.2790 -0.1231
    1DIPC   C4A22784  20.427  -0.015   4.629  0.0186 -0.0416  0.1009
    1DIPC   C1B22785  21.029   1.028   3.989  0.4037  0.0010 -0.0062
    1DIPC   D2B22786  20.626   0.947   4.190  0.1499  0.2629  0.0281
    1DIPC   D3B22787  20.756   0.653   4.511  0.0927 -0.0796 -0.1731
    1DIPC   C4B22788  21.178   0.508   4.768  0.1369  0.0152  0.0884
    1DIPC   NC322789  13.550  27.038   2.506  0.1040 -0.0682 -0.0788
    1DIPC   PO422790  13.854  27.005   2.911 -0.1836  0.1418  0.1153
    1DIPC   GL122791  13.530  27.014   3.321 -0.0683 -0.2918  0.1190
    1DIPC   GL222792  13.633  27.249   3.624 -0.4252 -0.0803 -0.5281
    1DIPC   C1A22793  13.247  26.943   3.564  0.2424  0.1082 -0.0169
    1DIPC   D2A22794  13.062  26.630   3.784  0.1344  0.1805 -0.1580
    1DIPC   D3A22795  12.837  26.861   3.979  0.0257  0.1575 -0.0831
    1DIPC   C4A22796  12.805  27.146   3.720  0.1038 -0.0431  0.1213
    1DIPC   C1B22797  13.523  26.942   3.960  0.0495  0.0738 -0.5982
    1DIPC   D2B22798  13.288  26.659   4.206  0.1257  0.0082 -0.3608
    1DIPC   D3B22799  13.713  26.616   4.232  0.1675  0.1901 -0.0613
    1DIPC   C4B22800  14.029  26.794   3.964 -0.1068 -0.0461  0.2369
    1DIPC   NC322801  10.657  25.078   2.705  0.0529  0.2148  0.2153
    1DIPC   PO422802  10.692  24.645   2.805 -0.2950 -0.0128 -0.1200
    1DIPC   GL122803  10.719  24.323   3.046 -0.2396  0.2597  0.1039
    1DIPC   GL222804  11.068  24.256   3.025  0.1785  0.0801  0.0819
    1DIPC   C1A22805  10.462  24.192   3.407  0.0460  0.4091 -0.0100
    1DIPC   D2A22806  10.460  24.057   3.818  0.1112  0.1411 -0.0442
    1DIPC   D3A22807  10.511  24.113   4.183 -0.1739  0.0856 -0.0636
    1DIPC   C4A22808  10.231  24.296   4.572 -0.3888  0.2377  0.3398
    1DIPC   C1B22809  10.974  24.269   3.465 -0.0439 -0.2811 -0.1251
    1DIPC   D2B22810  10.948  24.108   3.810 -0.1726 -0.1611  0.1071
    1DIPC   D3B22811  11.000  24.237   4.272 -0.1016 -0.0694 -0.0265
    1DIPC   C4B22812  10.741  24.504   4.425  0.2052  0.1503 -0.0240
    1DIPC   NC322813  11.758   3.065   3.736 -0.1379  0.0748 -0.2934
    1DIPC   PO422814  12.182   2.900   3.850 -0.1040  0.1758  0.0149
    1DIPC   GL122815  12.008   2.952   4.287  0.2759 -0.0089 -0.1282
    1DIPC   GL222816  11.682   3.109   4.260  0.3053 -0.2091 -0.1490
    1DIPC   C1A22817  11.796   2.808   4.630 -0.0476 -0.2650  0.0364
    1DIPC   D2A22818  11.661   2.560   4.967  0.0080 -0.2670 -0.0616
    1DIPC   D3A22819  11.959   2.633   5.291 -0.0590  0.0812  0.1073
    1DIPC   C4A22820  12.295   2.919   5.182  0.0219 -0.4056  0.0104
    1DIPC   C1B22821  11.660   3.400   4.676 -0.2329  0.1345  0.0701
    1DIPC   D2B22822  11.847   3.657   5.003  0.1288 -0.1150 -0.3077
    1DIPC   D3B22823  11.686   3.476   5.306 -0.1813  0.3065  0.0828
    1DIPC   C4B22824  11.216   3.508   5.399 -0.2284  0.3075  0.0984
    1DIPC   NC322825   9.964  24.948   2.231 -0.1358  0.0247  0.1234
    1DIPC   PO422826   9.637  24.735   2.457 -0.0360 -0.0100  0.0865
    1DIPC   GL122827   9.662  24.670   2.791  0.2994 -0.1458  0.1201
    1DIPC   GL222828   9.816  24.936   2.982  0.1282 -0.1577 -0.2199
    1DIPC   C1A22829   9.472  24.613   3.172  0.1064 -0.0512 -0.0732
    1DIPC   D2A22830   9.418  24.562   3.565 -0.0332  0.1238 -0.0277
    1DIPC   D3A22831   9.799  24.289   3.645  0.1033  0.1750 -0.1102
    1DIPC   C4A22832  10.156  24.614   3.667 -0.1384 -0.0527 -0.0017
    1DIPC   C1B22833   9.511  25.048   3.410  0.0196 -0.1490  0.1633
    1DIPC   D2B22834   9.649  24.948   3.845  0.2171  0.0681  0.1647
    1DIPC   D3B22835   9.696  24.546   4.037  0.4351  0.2024 -0.0812
    1DIPC   C4B22836   9.803  24.678   4.475 -0.1323 -0.1470  0.1591
    1DIPC   NC322837  23.984   7.490   3.097  0.2005 -0.3126  0.2614
    1DIPC   PO422838  23.999   7.883   2.809 -0.1309  0.1610 -0.1201
    1DIPC   GL122839  23.972   8.045   3.165 -0.4120  0.2899 -0.2957
    1DIPC   GL222840  23.848   8.310   3.391 -0.1322 -0.0333 -0.0267
    1DIPC   C1A22841  24.131   7.839   3.610 -0.0796 -0.2305 -0.0066
    1DIPC   D2A22842  24.057   7.851   3.982 -0.0963 -0.0336 -0.1308
    1DIPC   D3A22843  23.627   7.932   3.679  0.0193  0.2887 -0.0018
    1DIPC   C4A22844  23.353   7.597   3.669  0.1659 -0.0945  0.0480
    1DIPC   C1B22845  23.882   8.327   3.831 -0.0660  0.1361 -0.4317
    1DIPC   D2B22846  23.994   8.422   4.161  0.0203  0.2061 -0.0218
    1DIPC   D3B22847  23.673   8.028   4.175  0.2360  0.4013  0.0955
    1DIPC   C4B22848  23.282   8.028   4.177  0.3010  0.1410 -0.1293
    1DIPC   NC322849  28.702  18.970   2.574  0.0359  0.0838 -0.0042
    1DIPC   PO422850  28.460  19.247   2.877  0.1421 -0.4975  0.0089
    1DIPC   GL122851  28.613  19.621   3.093  0.0210  0.1344 -0.0157
    1DIPC   GL222852  28.477  19.776   3.317 -0.1040 -0.0741 -0.3160
    1DIPC   C1A22853  28.954  19.880   3.026 -0.1477 -0.1531 -0.0848
    1DIPC   D2A22854  29.110  20.278   3.069  0.0687 -0.0974  0.0945
    1DIPC   D3A22855  29.167  20.759   3.186  0.2160  0.0231 -0.3127
    1DIPC   C4A22856  29.413  20.725   3.539  0.0740  0.0100 -0.0549
    1DIPC   C1B22857  28.748  20.105   3.498  0.3427 -0.0783  0.2605
    1DIPC   D2B22858  28.972  20.462   3.571  0.1231 -0.0376  0.1646
    1DIPC   D3B22859  29.046  20.437   4.041 -0.0831 -0.1329 -0.1335
    1DIPC   C4B22860  29.159  20.039   4.268  0.3254  0.0588  0.0438
    1DIPC   NC322861  24.352  13.314   1.649 -0.0071 -0.0387 -0.0209
    1DIPC   PO422862  24.654  13.417   2.033 -0.0184  0.1405  0.0288
    1DIPC   GL122863  24.566  13.432   2.473 -0.0552 -0.3136 -0.0298
    1DIPC   GL222864  24.758  13.606   2.569 -0.0343 -0.0608  0.0463
    1DIPC   C1A22865  24.468  13.162   2.755  0.2704 -0.0348 -0.0098
    1DIPC   D2A22866  24.258  12.845   2.766  0.0774 -0.2574  0.2245
    1DIPC   D3A22867  23.864  13.055   2.905  0.1057  0.1432  0.2246
    1DIPC   C4A22868  23.741  13.135   3.245  0.0866  0.3123 -0.0129
    1DIPC   C1B22869  24.780  13.729   2.921  0.0434 -0.1151  0.4737
    1DIPC   D2B22870  24.873  13.768   3.366  0.1231 -0.1836  0.0255
    1DIPC   D3B22871  24.390  13.747   3.435  0.2274  0.1201  0.0255
    1DIPC   C4B22872  24.382  13.518   3.805 -0.0159  0.0501  0.0899
    1DIPC   NC322873   4.067   7.321   3.322 -0.0531  0.0956 -0.0085
    1DIPC   PO422874   4.309   7.291   3.716  0.0502 -0.0736  0.0328
    1DIPC   GL122875   4.393   7.241   4.115  0.0853 -0.0483  0.1261
    1DIPC   GL222876   4.703   7.044   4.067  0.0595  0.0010  0.1116
    1DIPC   C1A22877   4.523   7.238   4.555 -0.0280  0.1452 -0.0417
    1DIPC   D2A22878   4.520   7.313   4.950  0.1141  0.1225  0.0772
    1DIPC   D3A22879   4.695   6.885   4.906  0.0249  0.0558 -0.1045
    1DIPC   C4A22880   5.188   6.962   5.017 -0.3342  0.0661  0.1264
    1DIPC   C1B22881   4.889   6.836   4.364  0.2466  0.0824  0.1243
    1DIPC   D2B22882   4.946   6.535   4.742 -0.0145  0.1262  0.1417
    1DIPC   D3B22883   4.964   6.583   5.214  0.1429 -0.1538  0.0096
    1DIPC   C4B22884   4.676   6.360   5.408  0.1491 -0.0275 -0.1014
    1DIPC   NC322885  28.102  21.900   2.362 -0.0009 -0.0559 -0.1489
    1DIPC   PO422886  28.009  22.295   2.559  0.1314  0.1568  0.1197
    1DIPC   GL122887  28.033  22.372   3.001  0.0830 -0.3385  0.0962
    1DIPC   GL222888  27.989  22.672   3.140  0.0286  0.2536  0.1132
    1DIPC   C1A22889  28.159  22.212   3.401 -0.1537 -0.0466  0.0343
    1DIPC   D2A22890  28.154  22.207   3.891 -0.1031 -0.1301 -0.0584
    1DIPC   D3A22891  27.896  22.425   3.865  0.0596  0.1995 -0.0412
    1DIPC   C4A22892  27.756  22.667   4.151 -0.1571 -0.0010 -0.2492
    1DIPC   C1B22893  27.995  22.731   3.497 -0.1298 -0.1129  0.1214
    1DIPC   D2B22894  27.923  23.013   3.804  0.2079 -0.1405  0.0213
    1DIPC   D3B22895  28.254  22.784   4.087 -0.3022 -0.1626 -0.1519
    1DIPC   C4B22896  28.464  23.091   4.348 -0.1473  0.1138  0.0723
    1DIPC   NC322897   9.080   8.792   3.187 -0.0695 -0.1547  0.0502
    1DIPC   PO422898   8.620   8.809   3.341 -0.0537 -0.0437 -0.0132
    1DIPC   GL122899   8.405   8.733   3.772 -0.0326 -0.1056  0.1506
    1DIPC   GL222900   8.289   8.318   3.703 -0.0044 -0.0360  0.2918
    1DIPC   C1A22901   8.418   8.536   4.147  0.2371  0.4042  0.0263
    1DIPC   D2A22902   8.152   8.343   4.469  0.2703  0.0342 -0.3441
    1DIPC   D3A22903   7.930   8.598   4.756 -0.1462  0.0505  0.1092
    1DIPC   C4A22904   8.011   8.891   5.021  0.0169  0.3639  0.0811
    1DIPC   C1B22905   7.935   8.517   3.909  0.1698 -0.1542  0.2379
    1DIPC   D2B22906   7.855   8.726   4.284  0.0008 -0.2862 -0.3190
    1DIPC   D3B22907   7.734   9.143   4.259 -0.0264 -0.2106 -0.1963
    1DIPC   C4B22908   7.427   9.288   4.048 -0.0733 -0.0306 -0.0449
    1DIPC   NC322909  24.037   8.712   2.355 -0.0574  0.0609 -0.2970
    1DIPC   PO422910  24.408   8.753   2.722 -0.2335  0.2708 -0.0785
    1DIPC   GL122911  24.409   8.687   3.164  0.1658 -0.2101 -0.0158
    1DIPC   GL222912  24.066   8.760   3.357 -0.2385 -0.2217  0.0598
    1DIPC   C1A22913  24.639   8.594   3.539 -0.3132  0.0615  0.0587
    1DIPC   D2A22914  24.613   8.644   3.993  0.0278 -0.0637  0.0783
    1DIPC   D3A22915  24.303   8.988   4.146  0.0403  0.0999 -0.0758
    1DIPC   C4A22916  24.175   9.187   3.808  0.2873 -0.0349  0.0512
    1DIPC   C1B22917  24.205   8.646   3.750  0.0560 -0.2054  0.0312
    1DIPC   D2B22918  24.366   8.215   3.909  0.0559 -0.0756  0.0749
    1DIPC   D3B22919  24.584   7.979   4.177  0.2861  0.0769  0.1883
    1DIPC   C4B22920  24.973   7.714   4.161 -0.2850 -0.1097 -0.2295
    1DIPC   NC322921  18.757  26.980   3.481  0.0792 -0.0822 -0.1843
    1DIPC   PO422922  19.209  26.831   3.616 -0.1126 -0.2471  0.0954
    1DIPC   GL122923  19.090  26.644   3.972 -0.1528 -0.2631 -0.1181
    1DIPC   GL222924  18.785  26.592   3.923 -0.1795 -0.3134  0.1954
    1DIPC   C1A22925  18.907  26.610   4.403  0.1319  0.2035 -0.0106
    1DIPC   D2A22926  18.747  26.502   4.752 -0.0523 -0.2646  0.0216
    1DIPC   D3A22927  19.171  26.449   4.811  0.1574 -0.0900 -0.0408
    1DIPC   C4A22928  19.301  26.192   5.079 -0.0133 -0.2631  0.0896
    1DIPC   C1B22929  18.359  26.494   4.042 -0.1561  0.0095  0.3154
    1DIPC   D2B22930  18.037  26.555   4.202 -0.2137  0.3257 -0.0325
    1DIPC   D3B22931  18.220  26.455   4.584 -0.0143 -0.1239  0.1361
    1DIPC   C4B22932  17.970  26.322   4.820  0.5763  0.1620  0.1068
    1DIPC   NC322933   6.531  22.279   2.045 -0.1217  0.0779  0.0983
    1DIPC   PO422934   6.154  22.249   2.332  0.1183 -0.3216  0.1301
    1DIPC   GL122935   6.100  22.518   2.697 -0.1531  0.2937  0.2218
    1DIPC   GL222936   5.813  22.502   2.731 -0.3804  0.1360  0.0071
    1DIPC   C1A22937   6.314  22.597   3.032  0.0006  0.0225 -0.0896
    1DIPC   D2A22938   6.741  22.867   2.965  0.4281 -0.0323  0.0721
    1DIPC   D3A22939   6.728  22.720   3.323 -0.0336  0.0770  0.0698
    1DIPC   C4A22940   6.570  22.884   3.652  0.0619 -0.1416  0.1536
    1DIPC   C1B22941   5.772  22.283   3.128  0.3114 -0.1828  0.0807
    1DIPC   D2B22942   5.892  22.294   3.560  0.1495 -0.1840  0.0259
    1DIPC   D3B22943   6.280  22.449   3.627 -0.0651 -0.1122  0.1358
    1DIPC   C4B22944   6.546  22.527   3.988  0.2790 -0.1093  0.3991
    1DIPC   NC322945  27.069  29.458   2.766  0.1345 -0.1680  0.3960
    1DIPC   PO422946  26.910  29.323   3.149 -0.3686  0.0910 -0.1615
    1DIPC   GL122947  26.958  29.068   3.477  0.1154  0.3830  0.2573
    1DIPC   GL222948  27.171  29.053   3.625  0.2774  0.2823 -0.0471
    1DIPC   C1A22949  26.810  28.864   3.955 -0.2067  0.5197  0.0394
    1DIPC   D2A22950  26.479  28.693   4.169  0.2129 -0.1211  0.1657
    1DIPC   D3A22951  26.542  28.287   4.330  0.2025  0.1755  0.0871
    1DIPC   C4A22952  26.690  28.523   4.696  0.1965  0.2291  0.3218
    1DIPC   C1B22953  27.257  28.704   3.935  0.2841  0.1832  0.2916
    1DIPC   D2B22954  27.031  28.469   4.208  0.0751  0.1419  0.0319
    1DIPC   D3B22955  27.181  28.515   4.577 -0.0588 -0.0124  0.1853
    1DIPC   C4B22956  27.611  28.457   4.807  0.2981 -0.1431 -0.2636
    1DIPC   NC322957   4.041  26.011   2.208 -0.0193 -0.0987 -0.0559
    1DIPC   PO422958   3.572  25.905   2.166  0.1796  0.0543 -0.0985
    1DIPC   GL122959   3.721  25.809   2.534 -0.1640 -0.0512 -0.0063
    1DIPC   GL222960   3.881  25.964   2.740  0.1222 -0.0836  0.0954
    1DIPC   C1A22961   3.432  25.759   2.946 -0.0605 -0.0949  0.1923
    1DIPC   D2A22962   3.309  25.589   3.313  0.0658 -0.1335  0.3301
    1DIPC   D3A22963   3.176  25.125   3.253 -0.2188  0.1126 -0.3059
    1DIPC   C4A22964   3.093  24.770   3.595  0.2291 -0.1077 -0.0110
    1DIPC   C1B22965   3.817  25.461   2.901  0.1759 -0.0619  0.4096
    1DIPC   D2B22966   3.651  25.173   3.104  0.1505  0.2349  0.0855
    1DIPC   D3B22967   3.521  25.128   3.654 -0.2242 -0.1540  0.0930
    1DIPC   C4B22968   3.712  25.071   3.992  0.0408  0.1528 -0.0241
    1DIPC   NC322969  24.263  14.845   1.947 -0.3355  0.1215  0.3669
    1DIPC   PO422970  24.096  15.304   2.100  0.0169  0.1000 -0.1653
    1DIPC   GL122971  23.974  15.754   2.236 -0.0431  0.0598  0.2035
    1DIPC   GL222972  24.215  15.785   2.470 -0.2530 -0.2213 -0.0053
    1DIPC   C1A22973  23.712  15.997   2.529 -0.1600  0.2091  0.1850
    1DIPC   D2A22974  23.420  16.225   2.680  0.3659 -0.2572  0.2423
    1DIPC   D3A22975  23.148  15.862   2.917  0.0692  0.1037  0.1948
    1DIPC   C4A22976  23.255  15.602   3.206  0.0631  0.1700 -0.1557
    1DIPC   C1B22977  24.072  15.930   2.850 -0.0926 -0.2117 -0.0261
    1DIPC   D2B22978  23.615  15.860   3.051 -0.1299  0.1805  0.3068
    1DIPC   D3B22979  23.401  16.115   3.333 -0.0330 -0.0222 -0.2938
    1DIPC   C4B22980  23.290  16.284   3.738 -0.0817 -0.1414 -0.1705
    1DIPC   NC322981  23.611  22.385   3.331  0.0190 -0.0180  0.2634
    1DIPC   PO422982  23.986  22.461   3.371 -0.2790 -0.0826  0.2460
    1DIPC   GL122983  24.251  22.648   3.646  0.4345  0.0956 -0.2285
    1DIPC   GL222984  24.497  22.674   3.580  0.1274  0.0082  0.1320
    1DIPC   C1A22985  24.447  23.000   3.981 -0.0503  0.2524  0.2186
    1DIPC   D2A22986  24.491  23.501   4.025  0.1347 -0.3046  0.0396
    1DIPC   D3A22987  24.198  23.256   4.369  0.0045 -0.0675  0.0325
    1DIPC   C4A22988  24.284  23.176   4.746 -0.1139 -0.0564 -0.1518
    1DIPC   C1B22989  24.469  22.214   3.837  0.3551 -0.1697 -0.0398
    1DIPC   D2B22990  24.404  21.971   4.132  0.1729 -0.0615 -0.1344
    1DIPC   D3B22991  24.833  21.728   4.114  0.1577 -0.2149 -0.0675
    1DIPC   C4B22992  25.024  21.731   3.815  0.0157 -0.0025  0.0645
    1DIPC   NC322993   7.512  18.200   1.587  0.1786  0.1143  0.0706
    1DIPC   PO422994   7.457  18.238   2.000  0.0146 -0.1308 -0.0660
    1DIPC   GL122995   7.601  18.054   2.343 -0.1201 -0.0251  0.3406
    1DIPC   GL222996   7.869  18.241   2.351  0.1415 -0.0919  0.1284
    1DIPC   C1A22997   7.582  17.710   2.641  0.1895  0.1167 -0.0816
    1DIPC   D2A22998   7.491  17.802   3.020 -0.3600 -0.0553 -0.0580
    1DIPC   D3A22999   7.260  18.158   2.939  0.0145 -0.2650  0.0148
    1DIPC   C4A23000   7.428  18.389   3.225 -0.0883  0.0354 -0.1463
    1DIPC   C1B23001   7.874  18.122   2.756  0.2273  0.1397 -0.0532
    1DIPC   D2B23002   7.983  18.115   3.189 -0.1483 -0.3193  0.1358
    1DIPC   D3B23003   7.633  18.009   3.513 -0.3114 -0.0838  0.0084
    1DIPC   C4B23004   7.645  17.944   3.892  0.0929 -0.1497  0.0033
    1DIPC   NC323005   3.148  19.688   2.066 -0.1390 -0.0341 -0.2448
    1DIPC   PO423006   3.524  19.931   2.332 -0.0625 -0.2511  0.0651
    1DIPC   GL123007   3.624  19.964   2.822  0.1162 -0.2652  0.3172
    1DIPC   GL223008   3.828  20.226   3.009  0.0077  0.0167 -0.0424
    1DIPC   C1A23009   3.719  19.776   3.198 -0.0761 -0.0562  0.5747
    1DIPC   D2A23010   3.765  19.646   3.628  0.1321 -0.1225  0.0292
    1DIPC   D3A23011   3.670  19.227   3.844  0.3370 -0.4459  0.0603
    1DIPC   C4A23012   3.522  18.886   3.990  0.0975  0.4012  0.2758
    1DIPC   C1B23013   3.444  20.245   3.293  0.2025 -0.1423  0.0191
    1DIPC   D2B23014   3.351  20.336   3.704 -0.1108 -0.3059  0.1797
    1DIPC   D3B23015   3.303  19.932   3.615 -0.1894  0.3336  0.0683
    1DIPC   C4B23016   3.403  19.688   3.954 -0.0029  0.0094  0.2004
    1DIPC   NC323017   3.394  24.966   2.492  0.1594 -0.0761  0.1059
    1DIPC   PO423018   3.059  25.159   2.177 -0.0989  0.1574 -0.0399
    1DIPC   GL123019   2.843  25.082   2.582 -0.0673 -0.0859 -0.1034
    1DIPC   GL223020   2.952  24.940   2.877 -0.0233  0.1064 -0.2399
    1DIPC   C1A23021   2.596  25.297   2.876 -0.0601 -0.0163 -0.4543
    1DIPC   D2A23022   2.348  25.597   2.918 -0.1617  0.2452 -0.1594
    1DIPC   D3A23023   1.898  25.426   2.837 -0.0908  0.0460  0.3751
    1DIPC   C4A23024   1.840  25.188   3.228  0.0243  0.1319 -0.2165
    1DIPC   C1B23025   2.643  24.853   3.191 -0.2913 -0.2361 -0.1040
    1DIPC   D2B23026   2.544  24.753   3.618  0.2090  0.0557 -0.0411
    1DIPC   D3B23027   2.767  25.114   3.596  0.0675 -0.0967  0.1456
    1DIPC   C4B23028   2.410  25.299   3.932  0.0372 -0.0565  0.0263
    1DIPC   NC323029  13.063   0.489   3.232  0.2764  0.2706  0.3125
    1DIPC   PO423030  13.520   0.488   3.349  0.2112 -0.2780 -0.1550
    1DIPC   GL123031  13.669   0.433   3.734 -0.1589 -0.0466 -0.1368
    1DIPC   GL223032  13.623   0.134   3.765 -0.0174  0.0540  0.0334
    1DIPC   C1A23033  13.574   0.572   4.156 -0.4027  0.1692  0.0757
    1DIPC   D2A23034  13.729   0.383   4.593  0.1870 -0.0843  0.0127
    1DIPC   D3A23035  13.839  -0.069   4.599 -0.1797 -0.1098  0.0382
    1DIPC   C4A23036  13.665  -0.390   4.819 -0.1401 -0.0938  0.1351
    1DIPC   C1B23037  13.415   0.085   4.217  0.1353 -0.0196  0.1698
    1DIPC   D2B23038  13.335  -0.080   4.600  0.2845  0.3003 -0.0458
    1DIPC   D3B23039  13.489   0.128   4.966  0.0158 -0.0421 -0.0359
    1DIPC   C4B23040  13.939   0.074   5.060  0.1270 -0.0936  0.1169
    1DIPC   NC323041  16.869   1.125   2.898 -0.1830 -0.0252 -0.0323
    1DIPC   PO423042  17.148   1.461   3.263  0.0046  0.0082  0.1548
    1DIPC   GL123043  17.097   1.500   3.673  0.1228  0.1293  0.0378
    1DIPC   GL223044  17.390   1.611   3.681  0.0556 -0.1975  0.2564
    1DIPC   C1A23045  16.982   1.164   3.988  0.1433  0.0723  0.2563
    1DIPC   D2A23046  17.083   1.260   4.403  0.0835 -0.0005 -0.4798
    1DIPC   D3A23047  17.566   1.204   4.349 -0.2467 -0.3346 -0.0096
    1DIPC   C4A23048  17.669   1.412   4.587 -0.1176  0.0082 -0.0048
    1DIPC   C1B23049  17.339   1.666   4.126 -0.0110  0.1450 -0.0248
    1DIPC   D2B23050  17.388   1.862   4.520  0.2188  0.0331  0.2628
    1DIPC   D3B23051  17.798   2.087   4.382 -0.0489 -0.1888  0.0330
    1DIPC   C4B23052  17.867   2.348   4.696  0.0722 -0.1924 -0.2042
    1DIPC   NC323053   7.476   4.684   3.314  0.4667 -0.1180 -0.0557
    1DIPC   PO423054   7.083   4.411   3.424 -0.1148 -0.1367  0.2089
    1DIPC   GL123055   7.192   4.337   3.848 -0.0191 -0.0938 -0.1105
    1DIPC   GL223056   7.217   4.034   3.814 -0.1955 -0.0145 -0.0558
    1DIPC   C1A23057   7.137   4.490   4.294  0.0032 -0.0558  0.1068
    1DIPC   D2A23058   7.353   4.475   4.735 -0.2377 -0.1731 -0.2710
    1DIPC   D3A23059   7.719   4.386   4.502 -0.0718  0.0811  0.1872
    1DIPC   C4A23060   7.648   4.498   4.068 -0.2820  0.0703 -0.1077
    1DIPC   C1B23061   7.430   4.101   4.236 -0.0964 -0.1587 -0.1152
    1DIPC   D2B23062   7.550   3.911   4.611  0.2096 -0.0693  0.2339
    1DIPC   D3B23063   7.653   4.027   5.078 -0.1329 -0.2114  0.0798
    1DIPC   C4B23064   7.771   4.487   5.123 -0.2651  0.1692 -0.1251
    1DIPC   NC323065  22.498  29.504   2.638 -0.0726 -0.2025 -0.4715
    1DIPC   PO423066  22.480  29.855   2.973 -0.2695 -0.0854 -0.0612
    1DIPC   GL123067  22.607  29.945   3.352  0.1495 -0.1241  0.1166
    1DIPC   GL223068  22.873  30.073   3.506  0.3417 -0.2782  0.2768
    1DIPC   C1A23069  22.498  29.775   3.697  0.1154 -0.1557 -0.0577
    1DIPC   D2A23070  22.596  29.415   3.955 -0.0494  0.1790 -0.1284
    1DIPC   D3A23071  22.196  29.148   3.847  0.0482  0.0589  0.1128
    1DIPC   C4A23072  21.908  29.368   3.651 -0.0777  0.2980 -0.0669
    1DIPC   C1B23073  22.760  30.277   3.923  0.0409 -0.0692 -0.0710
    1DIPC   D2B23074  23.116  30.204   4.108 -0.0508  0.0910 -0.0877
    1DIPC   D3B23075  23.023  29.832   4.492  0.0411  0.0982  0.0185
    1DIPC   C4B23076  23.303  29.560   4.817  0.1013  0.2232 -0.0203
    1DIPC   NC323077  27.225   7.190   2.815  0.1147 -0.2072  0.1247
    1DIPC   PO423078  27.675   7.179   2.745 -0.2476  0.2618  0.0265
    1DIPC   GL123079  27.861   7.506   3.025  0.1454  0.2576  0.0968
    1DIPC   GL223080  27.576   7.567   3.225  0.1704 -0.0641  0.0998
    1DIPC   C1A23081  27.989   7.816   3.273 -0.1048 -0.2413 -0.1954
    1DIPC   D2A23082  28.189   8.178   3.639  0.1489  0.0431  0.3681
    1DIPC   D3A23083  28.146   7.989   4.036  0.0897 -0.2339  0.0288
    1DIPC   C4A23084  28.190   8.213   4.471  0.3354 -0.0122  0.1939
    1DIPC   C1B23085  27.494   7.317   3.649 -0.1310 -0.4241 -0.2051
    1DIPC   D2B23086  27.183   7.146   3.933  0.1419  0.3781 -0.1446
    1DIPC   D3B23087  27.495   6.978   4.227 -0.0446  0.2209 -0.1435
    1DIPC   C4B23088  27.372   6.807   4.664 -0.2396  0.2111  0.1167
    1DIPC   NC323089  17.025  29.679   3.413  0.1079 -0.2006  0.1718
    1DIPC   PO423090  16.946  30.187   3.287  0.1394  0.0618  0.3655
    1DIPC   GL123091  16.799  30.484   3.577 -0.0795  0.0247  0.1397
    1DIPC   GL223092  16.465  30.306   3.676  0.1299 -0.2361 -0.3094
    1DIPC   C1A23093  16.922  30.504   3.977  0.0688 -0.2932 -0.0862
    1DIPC   D2A23094  17.313  30.554   4.342 -0.0088 -0.1017 -0.2132
    1DIPC   D3A23095  17.218  30.808   4.867 -0.0702  0.2170  0.2299
    1DIPC   C4A23096  17.482  30.703   5.229  0.3800 -0.0200 -0.1858
    1DIPC   C1B23097  16.661  30.087   3.910  0.2018  0.0177 -0.0551
    1DIPC   D2B23098  16.855  29.763   3.942 -0.0650  0.0293 -0.1065
    1DIPC   D3B23099  16.413  29.684   3.924  0.0419 -0.1155 -0.0449
    1DIPC   C4B23100  16.121  29.455   4.211  0.0995  0.2412 -0.0840
    1DIPC   NC323101   5.399  25.454   2.537  0.2275  0.3637  0.2146
    1DIPC   PO423102   5.121  25.811   2.370 -0.0242  0.0972 -0.2135
    1DIPC   GL123103   5.002  25.566   2.793 -0.0176 -0.2604  0.3447
    1DIPC   GL223104   4.747  25.472   2.967 -0.0752  0.2096  0.1463
    1DIPC   C1A23105   5.267  25.392   3.153 -0.2238  0.1357  0.2784
    1DIPC   D2A23106   5.261  24.975   3.375 -0.1293 -0.1264 -0.0157
    1DIPC   D3A23107   4.904  24.810   2.966 -0.0578 -0.0303 -0.3827
    1DIPC   C4A23108   4.562  24.398   2.918  0.1234 -0.1571 -0.1006
    1DIPC   C1B23109   4.645  25.181   3.265  0.4035 -0.1893  0.2245
    1DIPC   D2B23110   4.528  25.260   3.790  0.1457  0.2734 -0.0727
    1DIPC   D3B23111   4.958  25.221   3.682  0.1643  0.0808  0.2910
    1DIPC   C4B23112   5.175  25.572   3.594 -0.2496  0.0596  0.0329
    1DIPC   NC323113   0.879   0.169   2.973 -0.1429  0.2365 -0.1886
    1DIPC   PO423114   0.648  -0.360   3.080  0.1731 -0.0170  0.2546
    1DIPC   GL123115   0.738  -0.165   3.406  0.2920 -0.0456 -0.2893
    1DIPC   GL223116   0.587  -0.300   3.644  0.1109 -0.0592 -0.1661
    1DIPC   C1A23117   1.022   0.057   3.728 -0.0971 -0.2057  0.1568
    1DIPC   D2A23118   1.143   0.308   4.091  0.0980 -0.2780  0.1070
    1DIPC   D3A23119   1.417   0.047   4.342 -0.0223  0.2447 -0.3370
    1DIPC   C4A23120   1.209  -0.215   4.768  0.0112 -0.0829 -0.1133
    1DIPC   C1B23121   0.873  -0.584   3.791  0.0379  0.1523  0.0890
    1DIPC   D2B23122   1.066  -0.671   4.168 -0.1186  0.0213 -0.3127
    1DIPC   D3B23123   1.340  -0.546   4.383  0.0646  0.2642  0.1681
    1DIPC   C4B23124   1.515  -0.730   4.869  0.1181  0.0715  0.2402
    1DIPC   NC323125  28.864  20.303   2.484 -0.0470 -0.0573 -0.0415
    1DIPC   PO423126  29.100  20.746   2.525 -0.0154 -0.1146 -0.3248
    1DIPC   GL123127  29.002  21.093   2.839  0.2661  0.1418  0.2107
    1DIPC   GL223128  29.242  21.223   2.928  0.1453  0.1791  0.2178
    1DIPC   C1A23129  28.828  21.483   3.171  0.0794 -0.2846  0.3716
    1DIPC   D2A23130  28.938  21.773   3.430  0.0723 -0.4299  0.0599
    1DIPC   D3A23131  28.627  21.702   3.872  0.3777  0.1189 -0.1822
    1DIPC   C4A23132  28.617  21.794   4.320 -0.0213  0.1350 -0.0836
    1DIPC   C1B23133  29.240  21.203   3.415 -0.2144 -0.2581  0.0174
    1DIPC   D2B23134  28.928  21.329   3.724 -0.0154  0.0020 -0.1220
    1DIPC   D3B23135  29.075  21.585   4.104  0.0671  0.1200  0.1434
    1DIPC   C4B23136  29.527  21.601   4.263  0.1148  0.2089  0.0862
    1DIPC   NC323137  23.753  13.515   2.187 -0.1741  0.0839  0.1923
    1DIPC   PO423138  23.455  13.393   2.403 -0.0808 -0.0264  0.0591
    1DIPC   GL123139  23.438  13.458   2.905 -0.0561 -0.2876  0.4311
    1DIPC   GL223140  23.270  13.783   3.056  0.2006  0.0241 -0.0116
    1DIPC   C1A23141  23.280  13.452   3.419  0.0535  0.1427  0.0844
    1DIPC   D2A23142  23.122  13.536   3.895  0.1726  0.0806 -0.3730
    1DIPC   D3A23143  23.337  13.910   3.818 -0.1781 -0.0083  0.2299
    1DIPC   C4A23144  23.359  14.265   4.143 -0.4298 -0.1333  0.2000
    1DIPC   C1B23145  23.364  14.101   3.280  0.3453  0.0442 -0.2580
    1DIPC   D2B23146  23.259  14.372   3.598 -0.0153  0.1876  0.2728
    1DIPC   D3B23147  22.887  14.147   3.657 -0.3686 -0.3129 -0.0317
    1DIPC   C4B23148  22.954  13.799   3.487  0.2307 -0.0902 -0.1463
    1DIPC   NC323149  12.597  23.571   2.324  0.1795 -0.0441  0.1050
    1DIPC   PO423150  13.057  23.665   2.210  0.2650  0.0864  0.0549
    1DIPC   GL123151  13.086  23.829   2.640 -0.1892 -0.3216 -0.2063
    1DIPC   GL223152  13.131  24.089   2.794  0.0926 -0.0808 -0.1171
    1DIPC   C1A23153  12.746  23.734   2.940  0.4031  0.0132  0.3736
    1DIPC   D2A23154  12.673  23.557   3.365 -0.3097 -0.1239  0.0299
    1DIPC   D3A23155  12.653  23.694   3.814 -0.2091 -0.1306 -0.1545
    1DIPC   C4A23156  12.924  23.641   4.125 -0.0520 -0.2454  0.4045
    1DIPC   C1B23157  13.050  23.888   3.277  0.2268  0.0349 -0.0932
    1DIPC   D2B23158  13.118  23.494   3.628 -0.1811 -0.1850  0.1270
    1DIPC   D3B23159  13.409  23.657   3.818  0.2612  0.1987  0.1081
    1DIPC   C4B23160  13.444  23.643   4.299 -0.0200 -0.0201  0.3671
    1DIPC   NC323161  21.208  22.619   3.101  0.2882  0.2679 -0.0325
    1DIPC   PO423162  20.985  22.751   3.412 -0.1548  0.2424 -0.0929
    1DIPC   GL123163  21.170  22.825   3.774 -0.1656 -0.0023  0.0148
    1DIPC   GL223164  21.458  22.844   3.747 -0.0790  0.2009  0.1743
    1DIPC   C1A23165  21.236  22.971   4.197  0.0705  0.1707 -0.0300
    1DIPC   D2A23166  21.058  23.242   4.466  0.0641  0.3799  0.1135
    1DIPC   D3A23167  21.364  23.078   4.802  0.0814  0.1188  0.1648
    1DIPC   C4A23168  21.072  22.974   5.089 -0.4606  0.1417 -0.1997
    1DIPC   C1B23169  21.509  22.502   4.071  0.2004  0.1833 -0.1659
    1DIPC   D2B23170  21.494  22.099   4.300  0.0294  0.1842 -0.0426
    1DIPC   D3B23171  21.633  22.273   4.723 -0.1120  0.1228  0.0292
    1DIPC   C4B23172  21.914  22.491   4.948  0.3291 -0.1825 -0.2276
    1DIPC   NC323173   0.577  14.210   1.455 -0.0813  0.1728 -0.3208
    1DIPC   PO423174   0.676  14.357   1.897 -0.0722 -0.1413 -0.3324
    1DIPC   GL123175   0.616  14.163   2.290 -0.3104 -0.0043  0.4983
    1DIPC   GL223176   0.673  13.807   2.380  0.0016  0.2573 -0.1388
    1DIPC   C1A23177   0.658  14.386   2.653  0.0089  0.1424  0.0812
    1DIPC   D2A23178   0.522  14.627   2.920 -0.0587  0.0375  0.0612
    1DIPC   D3A23179   0.805  14.344   3.129 -0.4458 -0.0512 -0.0340
    1DIPC   C4A23180   0.691  14.394   3.526  0.0715  0.2115  0.1728
    1DIPC   C1B23181   0.559  13.870   2.775  0.0770 -0.2480 -0.1841
    1DIPC   D2B23182   0.331  14.032   3.013 -0.5020 -0.4096  0.2003
    1DIPC   D3B23183   0.440  13.852   3.478 -0.1882  0.0235  0.1844
    1DIPC   C4B23184   0.335  14.081   3.847  0.2644 -0.0173 -0.1129
    1DIPC   NC323185  21.714  20.544   3.167 -0.0635  0.0331  0.0822
    1DIPC   PO423186  21.473  20.670   3.113 -0.0797 -0.0825  0.0314
    1DIPC   GL123187  21.292  20.534   3.496  0.0901  0.2118 -0.1520
    1DIPC   GL223188  21.613  20.566   3.784 -0.1787 -0.1636 -0.4441
    1DIPC   C1A23189  21.266  20.186   3.701  0.0547 -0.1969 -0.1337
    1DIPC   D2A23190  21.668  19.964   3.796  0.0519  0.2425  0.0784
    1DIPC   D3A23191  21.440  19.824   4.151  0.1953  0.0349  0.1429
    1DIPC   C4A23192  21.276  19.827   4.499 -0.3695 -0.1575  0.1253
    1DIPC   C1B23193  21.406  20.397   4.172  0.0735  0.0401 -0.2852
    1DIPC   D2B23194  21.532  20.277   4.466 -0.0654  0.0597 -0.1713
    1DIPC   D3B23195  21.904  20.082   4.435  0.2612 -0.1796 -0.1138
    1DIPC   C4B23196  22.168  19.847   4.698 -0.0301 -0.0468  0.0897
    1DIPC   NC323197  29.325  26.727   2.598  0.2954  0.3384 -0.3319
    1DIPC   PO423198  29.710  26.919   2.648  0.1150  0.4632 -0.1583
    1DIPC   GL123199  29.651  26.713   3.028 -0.0870  0.0025  0.1509
    1DIPC   GL223200  29.454  26.315   3.044  0.1527 -0.0241 -0.2116
    1DIPC   C1A23201  29.685  27.014   3.356 -0.0535  0.0642  0.0441
    1DIPC   D2A23202  29.639  26.986   3.769 -0.0149 -0.1748  0.1279
    1DIPC   D3A23203  29.742  27.012   4.267 -0.2626 -0.0490  0.2600
    1DIPC   C4A23204  29.684  26.584   4.411 -0.2346  0.1732 -0.0062
    1DIPC   C1B23205  29.334  26.257   3.497 -0.0076  0.0415  0.4418
    1DIPC   D2B23206  29.376  26.294   3.949  0.2526  0.0197  0.1731
    1DIPC   D3B23207  29.286  25.803   3.832  0.0218 -0.1022  0.1965
    1DIPC   C4B23208  28.938  25.750   4.134 -0.1239 -0.1755  0.1225
    1DIPC   NC323209   4.432   0.268   3.480 -0.0118  0.0408  0.1004
    1DIPC   PO423210   4.476   0.004   3.739  0.0576  0.0384 -0.4708
    1DIPC   GL123211   4.671   0.282   4.087  0.0979 -0.1729  0.0825
    1DIPC   GL223212   4.430   0.172   4.345  0.0330  0.2503 -0.1083
    1DIPC   C1A23213   4.967   0.506   4.284 -0.0975 -0.0039 -0.0041
    1DIPC   D2A23214   5.115   0.565   4.698 -0.0084 -0.0758  0.3077
    1DIPC   D3A23215   4.912   0.959   4.871  0.1624  0.3358  0.0268
    1DIPC   C4A23216   4.969   1.292   4.710  0.0356 -0.1922  0.2416
    1DIPC   C1B23217   4.517   0.544   4.555  0.3708  0.0453  0.0360
    1DIPC   D2B23218   4.621   0.591   4.951  0.1053 -0.0760  0.0028
    1DIPC   D3B23219   4.463   0.125   4.973 -0.1473 -0.0042  0.0197
    1DIPC   C4B23220   4.554   0.066   5.390  0.1901  0.3345  0.0881
    1DIPC   NC323221  29.464  21.104   2.447  0.1274 -0.2353  0.0952
    1DIPC   PO423222  29.532  21.563   2.533 -0.0274 -0.1579 -0.0008
    1DIPC   GL123223  29.884  21.340   2.792 -0.1939  0.1370  0.2819
    1DIPC   GL223224  29.696  21.244   3.074  0.3897 -0.1373 -0.0264
    1DIPC   C1A23225  30.334  21.175   2.982 -0.3490  0.1237 -0.1450
    1DIPC   D2A23226  30.481  20.863   3.071 -0.2662 -0.1532  0.2373
    1DIPC   D3A23227  30.310  21.160   3.539  0.0095 -0.1489  0.0560
    1DIPC   C4A23228  30.410  20.979   3.933  0.0063 -0.1359  0.0040
    1DIPC   C1B23229  29.832  21.283   3.521  0.1680  0.2272 -0.0668
    1DIPC   D2B23230  29.657  21.248   3.958 -0.0448 -0.0589  0.0911
    1DIPC   D3B23231  29.956  21.270   4.348 -0.0972  0.0606  0.0344
    1DIPC   C4B23232  30.433  21.282   4.334  0.0191 -0.1815 -0.1171
    1DIPC   NC323233  24.840  26.916   2.825 -0.0095 -0.1951 -0.0452
    1DIPC   PO423234  24.900  26.478   3.114  0.0870 -0.2055 -0.1787
    1DIPC   GL123235  24.822  26.636   3.639  0.1784 -0.0262 -0.2653
    1DIPC   GL223236  24.869  27.015   3.702  0.0757  0.0890  0.1037
    1DIPC   C1A23237  24.573  26.706   4.010 -0.1105  0.2273  0.0370
    1DIPC   D2A23238  24.263  26.639   4.372 -0.0061  0.0915  0.2776
    1DIPC   D3A23239  24.048  26.831   4.764  0.0582 -0.0321 -0.1056
    1DIPC   C4A23240  23.624  26.966   4.724  0.0211  0.1528 -0.0406
    1DIPC   C1B23241  24.795  27.260   4.066  0.1741  0.1741 -0.1766
    1DIPC   D2B23242  24.753  27.517   4.449 -0.0847 -0.1524 -0.2842
    1DIPC   D3B23243  25.077  27.706   4.547  0.0590  0.3247 -0.0088
    1DIPC   C4B23244  25.371  27.459   4.555 -0.1583 -0.0355  0.0625
    1DIPC   NC323245  17.442  26.119   3.562  0.2046  0.2219 -0.1735
    1DIPC   PO423246  17.409  25.650   3.501 -0.4231  0.2213  0.2440
    1DIPC   GL123247  17.363  25.581   3.915 -0.0629  0.0251  0.0526
    1DIPC   GL223248  17.640  25.810   3.967  0.0342  0.2972  0.1034
    1DIPC   C1A23249  17.212  25.632   4.322  0.1528 -0.0898 -0.4696
    1DIPC   D2A23250  17.246  25.545   4.729 -0.1204 -0.0739  0.0265
    1DIPC   D3A23251  17.004  25.799   5.070 -0.2011 -0.1711 -0.3676
    1DIPC   C4A23252  16.670  26.064   4.857  0.1692 -0.4298 -0.1948
    1DIPC   C1B23253  17.698  25.532   4.281 -0.0538 -0.0591 -0.1482
    1DIPC   D2B23254  17.745  25.145   4.653 -0.0530 -0.1802 -0.1330
    1DIPC   D3B23255  17.670  25.502   5.000 -0.0349 -0.0747 -0.1031
    1DIPC   C4B23256  17.979  25.871   5.065 -0.0531 -0.3712 -0.2029
    1DIPC   NC323257  23.341   3.281   3.591 -0.1355  0.3806  0.1726
    1DIPC   PO423258  22.840   3.187   3.653  0.1699  0.2096 -0.0613
    1DIPC   GL123259  22.593   2.910   3.902 -0.0141  0.0488  0.0621
    1DIPC   GL223260  22.797   2.809   4.207 -0.1954  0.2080  0.1579
    1DIPC   C1A23261  22.274   2.857   4.135 -0.0153  0.0265 -0.0675
    1DIPC   D2A23262  22.095   3.121   4.437  0.0800 -0.1398  0.0179
    1DIPC   D3A23263  21.988   2.862   4.798 -0.0415 -0.2221  0.1530
    1DIPC   C4A23264  22.110   2.406   4.802 -0.0769  0.1843 -0.0095
    1DIPC   C1B23265  22.486   2.814   4.609  0.1131  0.0645  0.1133
    1DIPC   D2B23266  22.419   2.740   5.096 -0.5035 -0.3490  0.1555
    1DIPC   D3B23267  22.668   2.544   5.447  0.2342 -0.1620 -0.0132
    1DIPC   C4B23268  22.970   2.237   5.626 -0.0707 -0.1578  0.1915
    1DIPC   NC323269   1.888   5.165   3.009  0.1873 -0.0006 -0.0306
    1DIPC   PO423270   2.222   4.980   3.340  0.0059 -0.3841  0.0906
    1DIPC   GL123271   2.245   4.927   3.762  0.1015 -0.2533  0.1107
    1DIPC   GL223272   2.547   4.817   3.867  0.1974 -0.3279 -0.0108
    1DIPC   C1A23273   2.252   5.063   4.202 -0.0868 -0.2667  0.2338
    1DIPC   D2A23274   2.362   5.364   4.525 -0.1227 -0.0324  0.0576
    1DIPC   D3A23275   1.999   5.339   4.690  0.2050  0.2256 -0.1718
    1DIPC   C4A23276   1.728   4.978   4.851  0.0011  0.3207  0.0279
    1DIPC   C1B23277   2.744   4.582   4.229 -0.1849  0.2873  0.2786
    1DIPC   D2B23278   2.961   4.568   4.640 -0.0392 -0.1634  0.1385
    1DIPC   D3B23279   2.649   4.236   4.758  0.1038  0.1063 -0.2279
    1DIPC   C4B23280   2.784   3.981   5.144 -0.2845 -0.0603 -0.0860
    1DIPC   NC323281   5.625  24.612   2.499  0.2843 -0.2275 -0.0006
    1DIPC   PO423282   5.403  24.924   2.612 -0.1957  0.1961  0.0647
    1DIPC   GL123283   5.562  24.762   2.943 -0.1808 -0.0419 -0.0912
    1DIPC   GL223284   5.447  24.422   2.984  0.1500 -0.3021 -0.4782
    1DIPC   C1A23285   5.764  25.029   3.324  0.0176 -0.1621 -0.3943
    1DIPC   D2A23286   5.884  24.806   3.671 -0.2323 -0.0742 -0.2832
    1DIPC   D3A23287   5.739  24.868   4.057  0.1917 -0.0410  0.0924
    1DIPC   C4A23288   6.071  24.743   4.367  0.1579 -0.3087  0.0125
    1DIPC   C1B23289   5.040  24.439   3.320 -0.2035  0.0228 -0.1039
    1DIPC   D2B23290   4.797  24.789   3.553 -0.0232  0.0230 -0.2159
    1DIPC   D3B23291   4.329  24.709   3.762 -0.1655 -0.0464  0.0017
    1DIPC   C4B23292   4.153  24.762   4.179  0.0466  0.0781  0.0617
    1DIPC   NC323293  12.147   6.940   3.145  0.0484  0.0556  0.2454
    1DIPC   PO423294  12.485   7.261   3.316  0.0068  0.1709 -0.0480
    1DIPC   GL123295  12.303   7.493   3.657 -0.1630  0.2052  0.1531
    1DIPC   GL223296  12.076   7.467   3.932  0.2263  0.0329 -0.2376
    1DIPC   C1A23297  12.481   7.740   4.011  0.0515 -0.1013  0.2369
    1DIPC   D2A23298  12.675   7.884   4.407 -0.5101 -0.2214 -0.1587
    1DIPC   D3A23299  12.502   7.674   4.787  0.1552  0.1714 -0.1759
    1DIPC   C4A23300  12.233   7.651   5.135  0.0623 -0.0728  0.0971
    1DIPC   C1B23301  12.121   7.510   4.380 -0.0225  0.1103 -0.0748
    1DIPC   D2B23302  11.868   7.324   4.800 -0.0852 -0.0595  0.5729
    1DIPC   D3B23303  11.976   6.952   5.010  0.0075  0.1541 -0.1208
    1DIPC   C4B23304  12.310   6.680   4.980  0.3241 -0.2166 -0.0101
    1DIPC   NC323305  28.410  27.252   2.754 -0.1548  0.2284 -0.0151
    1DIPC   PO423306  28.565  26.785   2.535 -0.3263 -0.1794 -0.0627
    1DIPC   GL123307  28.599  26.734   2.992 -0.1138  0.2525  0.1424
    1DIPC   GL223308  28.752  26.872   3.244 -0.1558 -0.2548 -0.4009
    1DIPC   C1A23309  28.312  26.795   3.391 -0.1068  0.2617  0.1204
    1DIPC   D2A23310  28.058  27.127   3.587 -0.0163 -0.2839  0.3237
    1DIPC   D3A23311  27.796  27.539   3.712 -0.2789  0.3084 -0.0752
    1DIPC   C4A23312  27.455  27.637   3.494  0.1456  0.0161 -0.1111
    1DIPC   C1B23313  28.644  26.837   3.801  0.0940  0.1966 -0.0593
    1DIPC   D2B23314  28.603  26.802   4.255  0.4252  0.3267 -0.0292
    1DIPC   D3B23315  28.216  27.027   4.296 -0.1400 -0.2863  0.0271
    1DIPC   C4B23316  28.159  27.264   4.019  0.1245 -0.1557  0.1157
    1DIPC   NC323317   7.788  13.288   2.862  0.3261  0.0597 -0.0600
    1DIPC   PO423318   7.444  13.074   2.993 -0.1615 -0.1480 -0.3369
    1DIPC   GL123319   7.350  13.336   3.257  0.1885  0.0335 -0.0674
    1DIPC   GL223320   7.227  13.647   3.274 -0.1927 -0.0282  0.2078
    1DIPC   C1A23321   7.526  13.349   3.713 -0.1511  0.3394 -0.0618
    1DIPC   D2A23322   7.703  13.132   4.058 -0.1875  0.1377 -0.0922
    1DIPC   D3A23323   7.887  12.918   3.772  0.0611  0.0873 -0.0195
    1DIPC   C4A23324   8.116  12.590   3.994 -0.0942 -0.1232 -0.1203
    1DIPC   C1B23325   6.870  13.804   3.506 -0.0612  0.0467  0.0244
    1DIPC   D2B23326   6.803  14.145   3.743  0.1236 -0.1182 -0.1617
    1DIPC   D3B23327   7.179  14.150   4.040 -0.0195 -0.2265 -0.0470
    1DIPC   C4B23328   7.192  13.867   4.431  0.4037  0.2057  0.0669
    1DIPC   NC323329  17.554  24.800   2.841  0.0417 -0.0400  0.1263
    1DIPC   PO423330  17.410  24.761   3.270  0.0437  0.1313  0.0275
    1DIPC   GL123331  17.190  24.484   3.497  0.1349 -0.0125  0.3347
    1DIPC   GL223332  17.269  24.673   3.762 -0.4157  0.1745 -0.1112
    1DIPC   C1A23333  17.317  24.171   3.830  0.1078 -0.2079  0.2388
    1DIPC   D2A23334  17.585  24.131   4.146  0.1230  0.0637 -0.0861
    1DIPC   D3A23335  17.549  24.184   4.528  0.2145 -0.3203 -0.0677
    1DIPC   C4A23336  17.596  24.600   4.835 -0.0888 -0.0840 -0.1942
    1DIPC   C1B23337  17.336  24.581   4.163  0.0918  0.3194  0.0866
    1DIPC   D2B23338  17.142  24.435   4.643 -0.1001 -0.0835 -0.0694
    1DIPC   D3B23339  17.164  24.507   5.147  0.0396 -0.1652  0.0148
    1DIPC   C4B23340  16.920  24.354   5.456  0.2166  0.1746  0.2275
    1DIPC   NC323341   5.236  17.433   1.986  0.2264 -0.2696  0.5988
    1DIPC   PO423342   4.869  17.335   1.844  0.2644 -0.1161 -0.2979
    1DIPC   GL123343   4.890  17.364   2.292  0.0357  0.4406  0.1927
    1DIPC   GL223344   5.061  17.242   2.454  0.3833 -0.1046 -0.1935
    1DIPC   C1A23345   4.596  17.404   2.641 -0.0461  0.1148  0.1381
    1DIPC   D2A23346   4.298  17.440   3.037 -0.1768  0.0610  0.2225
    1DIPC   D3A23347   4.001  17.472   2.782  0.0847  0.3286  0.1949
    1DIPC   C4A23348   4.018  17.262   2.390  0.2948 -0.1604  0.0585
    1DIPC   C1B23349   5.031  17.047   2.795 -0.0133  0.1894 -0.1253
    1DIPC   D2B23350   4.712  17.102   3.158  0.1106  0.1857 -0.1695
    1DIPC   D3B23351   4.446  16.971   3.510  0.1360 -0.2142  0.1930
    1DIPC   C4B23352   4.176  17.332   3.741 -0.1369 -0.3630 -0.2235
    1DIPC   NC323353  23.218   2.504   3.341  0.4023 -0.0753  0.0410
    1DIPC   PO423354  23.212   2.914   3.226 -0.1752  0.1723  0.1597
    1DIPC   GL123355  23.171   2.847   3.745 -0.2233 -0.2952  0.1075
    1DIPC   GL223356  23.446   2.802   3.782  0.1365 -0.0111 -0.0354
    1DIPC   C1A23357  23.351   3.051   4.258  0.0717 -0.1572  0.0248
    1DIPC   D2A23358  23.363   3.038   4.693  0.0288 -0.0250 -0.1120
    1DIPC   D3A23359  23.697   2.964   4.982  0.4315 -0.0668  0.0370
    1DIPC   C4A23360  24.033   3.153   5.175  0.2036 -0.3368 -0.3700
    1DIPC   C1B23361  23.848   3.022   4.063  0.1321 -0.0043  0.1251
    1DIPC   D2B23362  24.304   2.889   4.169 -0.0957  0.1241 -0.0364
    1DIPC   D3B23363  24.120   2.485   4.373  0.0303 -0.2692 -0.1155
    1DIPC   C4B23364  24.299   1.970   4.341 -0.0571  0.1789 -0.1939
    1DIPC   NC323365   6.613  17.348   2.407 -0.0073 -0.2032 -0.0703
    1DIPC   PO423366   6.370  17.562   2.688 -0.0369  0.0424 -0.2919
    1DIPC   GL123367   6.165  17.577   3.054 -0.0688  0.1856 -0.1114
    1DIPC   GL223368   6.091  17.881   3.165 -0.0274 -0.1316 -0.1739
    1DIPC   C1A23369   6.002  17.361   3.398 -0.1597 -0.0783 -0.3564
    1DIPC   D2A23370   5.952  17.160   3.838 -0.3366  0.2858 -0.0274
    1DIPC   D3A23371   6.213  17.409   4.133 -0.0389  0.0338 -0.0580
    1DIPC   C4A23372   6.408  17.147   4.564 -0.0519  0.0814  0.0100
    1DIPC   C1B23373   5.994  18.118   3.350 -0.2269 -0.1190 -0.0487
    1DIPC   D2B23374   5.806  18.196   3.718 -0.0829 -0.2406  0.0454
    1DIPC   D3B23375   5.673  18.558   3.768 -0.0424 -0.1780 -0.0866
    1DIPC   C4B23376   5.998  18.813   3.788 -0.1734  0.2520  0.1016
    1DIPC   NC323377   1.222  14.415   2.064 -0.0571 -0.0638  0.0602
    1DIPC   PO423378   1.649  14.269   2.170  0.1483 -0.0868  0.2121
    1DIPC   GL123379   1.519  14.519   2.521 -0.3153  0.2364 -0.0819
    1DIPC   GL223380   1.621  14.466   2.785 -0.1297  0.3241 -0.3416
    1DIPC   C1A23381   1.186  14.587   2.917  0.2316 -0.1701 -0.1731
    1DIPC   D2A23382   1.257  14.422   3.362 -0.1874 -0.0243  0.1065
    1DIPC   D3A23383   1.108  14.652   3.699  0.0735  0.1057  0.0714
    1DIPC   C4A23384   1.293  14.743   4.023 -0.1101 -0.0251 -0.0846
    1DIPC   C1B23385   1.799  14.494   3.204  0.1274 -0.2524  0.0948
    1DIPC   D2B23386   1.665  14.630   3.592  0.0608  0.2314 -0.2486
    1DIPC   D3B23387   1.693  14.346   3.649  0.2351  0.1114  0.2778
    1DIPC   C4B23388   1.278  14.213   3.918  0.0532  0.0639 -0.4673
    1DIPC   NC323389   4.342   3.745   3.691 -0.4422 -0.2526 -0.1575
    1DIPC   PO423390   3.921   3.915   3.555 -0.1196 -0.0254 -0.2508
    1DIPC   GL123391   3.758   3.990   3.848 -0.1493 -0.0282  0.0098
    1DIPC   GL223392   3.531   3.764   3.970  0.3414  0.1110  0.1154
    1DIPC   C1A23393   3.912   4.105   4.222 -0.1955  0.2291  0.0474
    1DIPC   D2A23394   3.788   4.245   4.641  0.0029  0.1843 -0.1407
    1DIPC   D3A23395   4.224   3.947   4.638 -0.1299 -0.1893  0.3359
    1DIPC   C4A23396   4.149   3.561   4.687  0.0214 -0.2370  0.4060
    1DIPC   C1B23397   3.499   3.791   4.371  0.1152 -0.1091  0.0187
    1DIPC   D2B23398   3.698   3.734   4.784 -0.1374 -0.0020  0.1337
    1DIPC   D3B23399   3.281   3.883   4.790  0.0334 -0.1642  0.1024
    1DIPC   C4B23400   3.305   4.295   4.953  0.0993  0.2362  0.1360
    1DIPC   NC323401  25.199  25.378   2.594 -0.1456 -0.0256  0.0386
    1DIPC   PO423402  25.046  25.047   2.901  0.1125  0.1194  0.0406
    1DIPC   GL123403  25.028  25.097   3.294 -0.1374 -0.3223 -0.0800
    1DIPC   GL223404  25.190  25.034   3.626  0.2661  0.3552 -0.1071
    1DIPC   C1A23405  24.697  24.824   3.611  0.3173 -0.0226  0.0892
    1DIPC   D2A23406  24.659  24.515   3.976 -0.0426 -0.4968  0.1793
    1DIPC   D3A23407  25.012  24.700   3.995  0.1491 -0.1103  0.3076
    1DIPC   C4A23408  25.333  24.584   3.740 -0.4135 -0.0159  0.0963
    1DIPC   C1B23409  24.907  25.212   4.044 -0.0087  0.1935 -0.0012
    1DIPC   D2B23410  24.682  25.341   4.458 -0.0890 -0.2220  0.0695
    1DIPC   D3B23411  24.296  25.240   4.194  0.0378 -0.0544  0.2295
    1DIPC   C4B23412  24.247  24.907   3.844 -0.3007 -0.2589  0.2736
    1DIPC   NC323413   8.567  13.465   2.673  0.2321  0.2328 -0.0121
    1DIPC   PO423414   8.190  13.583   2.869 -0.0436  0.2788  0.0530
    1DIPC   GL123415   8.084  13.783   3.242 -0.1482  0.1441 -0.0038
    1DIPC   GL223416   8.291  13.954   3.305 -0.0406  0.0677  0.2440
    1DIPC   C1A23417   7.861  13.751   3.615  0.0417 -0.0847 -0.0999
    1DIPC   D2A23418   7.661  13.764   4.029  0.4135 -0.0820 -0.0911
    1DIPC   D3A23419   8.009  13.459   4.243 -0.3580  0.0638  0.0945
    1DIPC   C4A23420   8.195  13.036   4.220  0.3259 -0.0856  0.0729
    1DIPC   C1B23421   8.272  14.100   3.654 -0.2679 -0.2059 -0.0471
    1DIPC   D2B23422   8.092  13.947   4.014 -0.0660  0.0219 -0.0614
    1DIPC   D3B23423   8.493  14.148   4.159  0.0857 -0.1239 -0.0847
    1DIPC   C4B23424   8.651  14.443   4.446 -0.0415  0.0586 -0.0267
    1DIPC   NC323425  21.282   1.876   3.150 -0.4307 -0.1351  0.2106
    1DIPC   PO423426  21.293   1.357   3.300 -0.1632  0.2177  0.3282
    1DIPC   GL123427  21.214   1.392   3.669  0.2491  0.1859 -0.0222
    1DIPC   GL223428  20.911   1.473   3.681  0.0431  0.0619  0.3936
    1DIPC   C1A23429  21.221   1.514   4.078 -0.0314 -0.0277 -0.0776
    1DIPC   D2A23430  21.313   1.506   4.519  0.0998 -0.2344 -0.1479
    1DIPC   D3A23431  20.936   1.677   4.555  0.0412  0.2591 -0.1227
    1DIPC   C4A23432  20.774   1.553   4.921 -0.0019  0.0053  0.1563
    1DIPC   C1B23433  20.748   1.450   4.140 -0.2743  0.0526  0.1236
    1DIPC   D2B23434  20.476   1.376   4.488  0.1169 -0.1991 -0.2428
    1DIPC   D3B23435  19.916   1.268   4.423  0.0668 -0.0968 -0.1978
    1DIPC   C4B23436  19.548   1.498   4.599 -0.0917  0.2173  0.1439
    1DIPC   NC323437   4.704  13.249   2.478 -0.2080  0.4456  0.1593
    1DIPC   PO423438   5.040  13.130   2.788 -0.1202  0.0614 -0.0638
    1DIPC   GL123439   4.971  13.332   3.171 -0.0554 -0.1661  0.2413
    1DIPC   GL223440   5.233  13.571   3.345 -0.1721 -0.0078  0.1206
    1DIPC   C1A23441   4.720  13.356   3.589 -0.0668 -0.1455 -0.0233
    1DIPC   D2A23442   4.616  13.218   4.054 -0.1098  0.1667  0.1154
    1DIPC   D3A23443   4.668  12.821   3.763 -0.0823  0.1236  0.2052
    1DIPC   C4A23444   4.409  12.571   3.856 -0.1900  0.1528 -0.0980
    1DIPC   C1B23445   5.190  13.640   3.827  0.2334 -0.2046 -0.0366
    1DIPC   D2B23446   5.016  13.499   4.301 -0.0890 -0.2760 -0.2202
    1DIPC   D3B23447   5.000  12.961   4.192  0.0006  0.1505 -0.1405
    1DIPC   C4B23448   4.911  12.658   4.631  0.0241 -0.0133  0.0831
    1DIPC   NC323449  26.910  26.070   2.409 -0.1957 -0.0503  0.1130
    1DIPC   PO423450  27.124  25.777   2.818  0.0833 -0.1555  0.1873
    1DIPC   GL123451  27.220  25.895   3.249  0.1858  0.1889 -0.2390
    1DIPC   GL223452  27.354  26.286   3.271  0.3714 -0.3422 -0.1290
    1DIPC   C1A23453  27.242  26.047   3.651 -0.1120  0.0614 -0.3220
    1DIPC   D2A23454  27.454  26.303   3.895  0.2886 -0.3264  0.0198
    1DIPC   D3A23455  27.412  26.092   4.293  0.1964 -0.1677 -0.2595
    1DIPC   C4A23456  27.526  25.804   4.646  0.0111  0.3534  0.1343
    1DIPC   C1B23457  27.258  26.607   3.479 -0.0121 -0.1742 -0.1819
    1DIPC   D2B23458  27.081  26.814   3.905 -0.1261 -0.0873 -0.1134
    1DIPC   D3B23459  26.631  26.977   4.022 -0.0156  0.3655 -0.4039
    1DIPC   C4B23460  26.535  27.173   4.475 -0.1335 -0.1807  0.0412
    1DIPC   NC323461   1.631  10.603   2.957 -0.0430 -0.2080  0.0553
    1DIPC   PO423462   1.831  10.332   3.199  0.0724 -0.1147 -0.2015
    1DIPC   GL123463   1.707  10.610   3.495 -0.0138  0.1562 -0.0458
    1DIPC   GL223464   1.379  10.344   3.507 -0.1499 -0.1594 -0.0102
    1DIPC   C1A23465   1.692  10.983   3.716  0.2433  0.0716  0.1242
    1DIPC   D2A23466   1.368  11.159   4.053  0.1634 -0.2079 -0.3646
    1DIPC   D3A23467   1.205  10.917   4.297 -0.1310  0.0842  0.1288
    1DIPC   C4A23468   0.869  10.975   4.401 -0.0567  0.1033  0.0063
    1DIPC   C1B23469   1.457  10.406   3.910  0.1945  0.0593  0.1880
    1DIPC   D2B23470   1.610  10.706   4.131  0.1130 -0.0514 -0.1624
    1DIPC   D3B23471   1.488  10.420   4.408  0.1569 -0.3613  0.0628
    1DIPC   C4B23472   1.188  10.512   4.620  0.1186  0.1427  0.2447
    1DIPC   NC323473  17.204  24.223   3.067  0.0300 -0.3794 -0.1711
    1DIPC   PO423474  17.628  24.312   3.181 -0.0610  0.1941 -0.1801
    1DIPC   GL123475  17.732  24.496   3.600 -0.2130 -0.0299  0.1018
    1DIPC   GL223476  17.767  24.846   3.662  0.1366  0.0201 -0.0030
    1DIPC   C1A23477  17.853  24.498   4.022  0.2843  0.1091 -0.0196
    1DIPC   D2A23478  17.846  24.628   4.420  0.2751 -0.2253 -0.2608
    1DIPC   D3A23479  17.985  24.363   4.793  0.0267  0.0725 -0.1451
    1DIPC   C4A23480  17.894  24.471   5.231  0.3187  0.2473  0.1261
    1DIPC   C1B23481  18.025  24.932   3.996  0.1432  0.1076  0.0692
    1DIPC   D2B23482  18.509  25.088   4.117  0.4290 -0.0994  0.2645
    1DIPC   D3B23483  18.223  25.069   4.466  0.1181  0.0229 -0.2889
    1DIPC   C4B23484  18.284  24.747   4.772 -0.2387  0.1647  0.2081
    1DIPC   NC323485  25.348  16.068   2.017  0.1467  0.0352 -0.0721
    1DIPC   PO423486  25.564  15.676   2.172 -0.0700 -0.3458 -0.2629
    1DIPC   GL123487  25.393  15.916   2.483 -0.0903 -0.2953  0.1214
    1DIPC   GL223488  25.443  15.788   2.784  0.0328  0.2398  0.0040
    1DIPC   C1A23489  25.102  16.117   2.853 -0.1812  0.0055  0.0008
    1DIPC   D2A23490  24.844  16.406   3.169 -0.2675 -0.1204 -0.3364
    1DIPC   D3A23491  25.174  16.411   3.363 -0.2582 -0.2742 -0.2838
    1DIPC   C4A23492  25.106  16.603   3.744 -0.4589 -0.0103  0.1572
    1DIPC   C1B23493  25.357  15.911   3.194  0.0893 -0.2506  0.1919
    1DIPC   D2B23494  25.420  15.717   3.694 -0.0744  0.2446  0.0515
    1DIPC   D3B23495  25.289  16.101   3.716 -0.2445  0.1090 -0.0209
    1DIPC   C4B23496  25.594  16.494   3.759 -0.3217  0.0118  0.3529
    1DIPC   NC323497  16.865  27.495   3.508 -0.0613  0.3217  0.4675
    1DIPC   PO423498  17.114  27.905   3.462 -0.0416 -0.0109 -0.1516
    1DIPC   GL123499  17.170  27.768   3.837 -0.0286 -0.1215  0.0507
    1DIPC   GL223500  16.931  27.869   4.003 -0.2124 -0.1432  0.0319
    1DIPC   C1A23501  17.320  27.837   4.327  0.1867  0.0942  0.0156
    1DIPC   D2A23502  17.347  28.137   4.685 -0.0591 -0.2336  0.1222
    1DIPC   D3A23503  17.017  28.040   4.914  0.1616  0.0427  0.0672
    1DIPC   C4A23504  17.005  27.589   5.107  0.0637  0.2001 -0.0012
    1DIPC   C1B23505  16.715  28.135   4.269  0.0387 -0.0531  0.0838
    1DIPC   D2B23506  16.418  28.139   4.559 -0.2112  0.0903  0.3041
    1DIPC   D3B23507  16.284  28.522   4.721  0.0135  0.1276 -0.1933
    1DIPC   C4B23508  15.919  28.693   4.826  0.1510 -0.0484 -0.1253
    1DIPC   NC323509   3.863   3.504   2.950 -0.0852 -0.0617  0.4873
    1DIPC   PO423510   4.106   3.411   3.347 -0.0557  0.2669  0.0669
    1DIPC   GL123511   4.154   3.219   3.716  0.2520  0.0957  0.3986
    1DIPC   GL223512   3.941   3.451   3.868  0.0622 -0.0895 -0.1964
    1DIPC   C1A23513   4.370   2.858   3.858 -0.0341 -0.0600 -0.0408
    1DIPC   D2A23514   4.636   2.534   4.141  0.0926  0.1189  0.0127
    1DIPC   D3A23515   4.620   2.850   4.314  0.2193  0.0037 -0.1726
    1DIPC   C4A23516   4.669   3.348   4.582 -0.0065  0.0358 -0.1024
    1DIPC   C1B23517   3.890   3.466   4.274  0.1932  0.3279 -0.0366
    1DIPC   D2B23518   3.587   3.303   4.490 -0.0822 -0.4273 -0.0612
    1DIPC   D3B23519   3.777   2.993   4.516 -0.0039 -0.1436 -0.0271
    1DIPC   C4B23520   4.254   3.143   4.477 -0.1477  0.0148  0.2151
    1DIPC   NC323521   3.098   4.367   3.305  0.0325 -0.1354 -0.0453
    1DIPC   PO423522   3.193   4.813   3.367 -0.0012  0.3025 -0.0810
    1DIPC   GL123523   3.384   5.009   3.743 -0.1742 -0.0363  0.2793
    1DIPC   GL223524   3.126   5.164   3.880 -0.0530  0.0400  0.1629
    1DIPC   C1A23525   3.622   4.984   4.111  0.0757 -0.1929  0.2644
    1DIPC   D2A23526   3.836   4.744   4.429  0.1519 -0.3322 -0.1484
    1DIPC   D3A23527   3.446   4.704   4.529 -0.0530  0.0036 -0.0991
    1DIPC   C4A23528   3.172   4.793   4.227 -0.2979 -0.0002 -0.0896
    1DIPC   C1B23529   3.140   5.336   4.401  0.0720  0.1296  0.2110
    1DIPC   D2B23530   3.173   5.062   4.754  0.2209  0.0672 -0.2469
    1DIPC   D3B23531   3.609   5.218   4.587  0.2414  0.0790 -0.2291
    1DIPC   C4B23532   4.120   5.129   4.806  0.0907  0.0899  0.0279
    1DIPC   NC323533   9.842  21.403   2.017 -0.1089  0.2649  0.1404
    1DIPC   PO423534   9.337  21.365   2.054 -0.0902  0.2020 -0.3383
    1DIPC   GL123535   8.970  21.301   2.249  0.1082  0.1029 -0.0813
    1DIPC   GL223536   9.004  21.241   2.592  0.1934 -0.0406 -0.0622
    1DIPC   C1A23537   8.643  21.585   2.302  0.2488  0.0865  0.2218
    1DIPC   D2A23538   8.215  21.733   2.505  0.0405  0.1562 -0.1341
    1DIPC   D3A23539   8.229  22.119   2.668  0.1033  0.0273  0.0996
    1DIPC   C4A23540   8.422  22.356   2.829  0.3068  0.1703  0.1595
    1DIPC   C1B23541   8.655  21.560   2.807  0.0814 -0.0213  0.0994
    1DIPC   D2B23542   8.276  21.736   3.087 -0.1159  0.1120 -0.1617
    1DIPC   D3B23543   8.588  21.981   3.098  0.0818 -0.3228  0.0654
    1DIPC   C4B23544   8.759  22.035   2.692  0.0779 -0.2630  0.1371
    1DIPC   NC323545   0.332  22.456   1.651 -0.3667 -0.4849  0.0208
    1DIPC   PO423546   0.260  22.326   2.190 -0.0044 -0.3163  0.0356
    1DIPC   GL123547   0.622  22.442   2.542 -0.2145 -0.0823  0.0192
    1DIPC   GL223548   0.850  22.718   2.525  0.0854  0.0081  0.1320
    1DIPC   C1A23549   0.786  22.228   2.785  0.0113  0.1210 -0.1052
    1DIPC   D2A23550   0.985  22.096   3.214 -0.0632 -0.1383 -0.1171
    1DIPC   D3A23551   1.331  21.859   3.381  0.0256 -0.4892 -0.2112
    1DIPC   C4A23552   1.430  21.564   3.233  0.1356 -0.1412  0.1263
    1DIPC   C1B23553   1.045  22.661   2.911 -0.1157  0.0109  0.2328
    1DIPC   D2B23554   1.267  22.480   3.255  0.0480 -0.1950 -0.2299
    1DIPC   D3B23555   1.405  22.149   2.960  0.1600 -0.0002  0.0875
    1DIPC   C4B23556   1.823  21.867   3.016 -0.0498 -0.0277  0.2719
    1DIPC   NC323557  23.932  27.709   2.861 -0.0210 -0.0504  0.0346
    1DIPC   PO423558  23.913  27.953   3.183 -0.0711  0.4077  0.3042
    1DIPC   GL123559  23.843  27.591   3.487 -0.0277 -0.0116  0.1385
    1DIPC   GL223560  23.613  27.258   3.530  0.0442 -0.0317  0.0603
    1DIPC   C1A23561  23.631  27.644   3.853 -0.2927  0.2851 -0.0857
    1DIPC   D2A23562  23.754  27.466   4.198  0.3595  0.2382 -0.1082
    1DIPC   D3A23563  23.551  27.810   4.449  0.0025 -0.1550  0.0735
    1DIPC   C4A23564  23.075  27.767   4.635  0.1567 -0.1888 -0.3605
    1DIPC   C1B23565  23.888  27.148   3.792 -0.1393 -0.1820  0.0087
    1DIPC   D2B23566  24.237  27.096   4.018  0.1324 -0.4254  0.0194
    1DIPC   D3B23567  23.938  27.055   4.320  0.0530 -0.1530  0.0474
    1DIPC   C4B23568  23.757  26.649   4.361 -0.2085 -0.0212 -0.2548
    1DIPC   NC323569  28.106   7.651   2.564 -0.0072 -0.3578  0.3977
    1DIPC   PO423570  28.233   7.239   2.720  0.0487  0.0867  0.1721
    1DIPC   GL123571  28.351   7.463   3.075 -0.0175  0.0130 -0.0850
    1DIPC   GL223572  28.726   7.396   3.102 -0.0614  0.0722 -0.3177
    1DIPC   C1A23573  28.384   7.522   3.536 -0.1393 -0.0244 -0.1074
    1DIPC   D2A23574  28.558   7.742   3.817 -0.1196 -0.0366 -0.2408
    1DIPC   D3A23575  28.322   7.529   4.074  0.0908 -0.0535 -0.1098
    1DIPC   C4A23576  28.031   7.729   4.437  0.1668 -0.1927  0.1737
    1DIPC   C1B23577  28.964   7.691   3.431  0.1202  0.0044 -0.0767
    1DIPC   D2B23578  29.283   7.721   3.744  0.0341 -0.0659 -0.0852
    1DIPC   D3B23579  29.031   7.793   4.059  0.0431 -0.1464 -0.0214
    1DIPC   C4B23580  29.056   7.894   4.461  0.2962 -0.3930 -0.0211
    1DIPC   NC323581  15.193   8.355   2.427 -0.0790 -0.2544  0.0252
    1DIPC   PO423582  15.693   8.527   2.279 -0.1207 -0.2321  0.1083
    1DIPC   GL123583  15.809   8.430   2.723 -0.0220  0.3004  0.1042
    1DIPC   GL223584  16.095   8.607   2.755 -0.2117  0.2226  0.3106
    1DIPC   C1A23585  15.582   8.217   3.095 -0.0354  0.0411  0.0159
    1DIPC   D2A23586  15.345   8.328   3.341 -0.0427  0.0646  0.0773
    1DIPC   D3A23587  14.992   8.056   3.496  0.0657  0.2095  0.2810
    1DIPC   C4A23588  15.026   7.637   3.522 -0.0970 -0.2679  0.0777
    1DIPC   C1B23589  16.270   8.608   3.150  0.2137  0.0017 -0.1175
    1DIPC   D2B23590  16.408   8.495   3.552 -0.0246 -0.0537  0.2264
    1DIPC   D3B23591  16.689   8.571   3.858  0.1641 -0.2173  0.1292
    1DIPC   C4B23592  16.620   8.718   4.246 -0.0918 -0.2291 -0.2963
    1DIPC   NC323593  17.238  22.149   2.760 -0.1719  0.1444 -0.1464
    1DIPC   PO423594  17.461  21.737   2.774 -0.0569 -0.1081 -0.0994
    1DIPC   GL123595  17.492  21.824   3.157 -0.3267 -0.0648 -0.1074
    1DIPC   GL223596  17.362  21.573   3.408 -0.1203  0.1995 -0.1756
    1DIPC   C1A23597  17.461  22.145   3.408 -0.1415  0.1633  0.1017
    1DIPC   D2A23598  17.573  22.237   3.840  0.2515 -0.4629  0.0987
    1DIPC   D3A23599  17.768  22.218   4.211  0.3563  0.3137 -0.2209
    1DIPC   C4A23600  18.141  22.038   4.230 -0.0506 -0.3665  0.0844
    1DIPC   C1B23601  17.086  21.420   3.742  0.3246 -0.2798  0.1272
    1DIPC   D2B23602  17.256  21.402   4.181  0.1145 -0.0549  0.0369
    1DIPC   D3B23603  17.654  21.584   4.439 -0.0105  0.0945  0.1269
    1DIPC   C4B23604  17.739  21.552   4.875  0.0161 -0.0143 -0.1677
    1DIPC   NC323605  20.261  21.519   3.435  0.5509 -0.0101 -0.0805
    1DIPC   PO423606  20.794  21.461   3.606 -0.3189 -0.0007  0.0090
    1DIPC   GL123607  21.133  21.239   3.808  0.1653 -0.2671  0.3584
    1DIPC   GL223608  21.026  20.925   3.827  0.0603 -0.3907  0.4798
    1DIPC   C1A23609  21.005  21.340   4.195  0.1818  0.0134  0.3355
    1DIPC   D2A23610  20.760  21.756   4.262  0.1076  0.0333 -0.1042
    1DIPC   D3A23611  21.125  21.723   4.562  0.2728 -0.0674 -0.0280
    1DIPC   C4A23612  21.337  21.358   4.525 -0.0365 -0.0924  0.2537
    1DIPC   C1B23613  20.696  20.976   4.076 -0.4421 -0.0962 -0.1393
    1DIPC   D2B23614  20.387  21.237   4.383  0.1992 -0.0379 -0.1226
    1DIPC   D3B23615  20.270  21.241   4.775 -0.1448  0.2929  0.0849
    1DIPC   C4B23616  20.558  20.980   5.086 -0.0918 -0.2417 -0.3454
    1DIPC   NC323617  23.129  29.219   3.156  0.0271 -0.4563 -0.1079
    1DIPC   PO423618  23.383  28.863   3.132 -0.1071 -0.3707 -0.1633
    1DIPC   GL123619  23.246  28.872   3.591 -0.3437 -0.0919 -0.0486
    1DIPC   GL223620  23.466  28.863   3.874  0.0713  0.0916 -0.0043
    1DIPC   C1A23621  23.056  29.067   4.009  0.1294 -0.3383  0.1733
    1DIPC   D2A23622  22.899  29.377   4.329  0.1735  0.1046  0.1271
    1DIPC   D3A23623  22.798  29.091   4.709 -0.2216  0.1695  0.1285
    1DIPC   C4A23624  22.525  28.755   4.653 -0.2011 -0.0288 -0.0163
    1DIPC   C1B23625  23.668  28.510   4.054 -0.0925 -0.0034 -0.0447
    1DIPC   D2B23626  23.661  28.344   4.499  0.1082  0.3691  0.3985
    1DIPC   D3B23627  23.399  28.540   4.807  0.0185  0.1300  0.0600
    1DIPC   C4B23628  22.988  28.677   4.891  0.2462 -0.0387  0.3895
    1DIPC   NC323629   2.964   5.005   2.972 -0.3156 -0.0709  0.1736
    1DIPC   PO423630   2.732   5.140   3.315 -0.0033 -0.0870 -0.3025
    1DIPC   GL123631   2.630   5.330   3.651  0.2088  0.2443 -0.2904
    1DIPC   GL223632   2.741   5.530   3.808  0.0929 -0.0020 -0.1138
    1DIPC   C1A23633   2.217   5.446   3.852 -0.1806 -0.0748 -0.0002
    1DIPC   D2A23634   1.951   5.590   4.254 -0.3070 -0.2353  0.0076
    1DIPC   D3A23635   1.559   5.710   4.114  0.0003  0.1040 -0.4086
    1DIPC   C4A23636   1.487   6.075   3.933 -0.1028 -0.1718  0.3087
    1DIPC   C1B23637   2.713   5.306   4.182  0.3303  0.1815  0.1483
    1DIPC   D2B23638   2.716   5.034   4.525  0.3228 -0.1184 -0.0842
    1DIPC   D3B23639   2.681   5.305   4.884  0.0353  0.4415 -0.0638
    1DIPC   C4B23640   2.283   5.246   5.041 -0.0570 -0.0496  0.1460
    1DIPC   NC323641   1.730   0.449   2.940  0.2557  0.0578  0.0614
    1DIPC   PO423642   1.353   0.322   2.885 -0.3345  0.2497 -0.0250
    1DIPC   GL123643   1.159   0.427   3.325 -0.0430  0.2210 -0.1480
    1DIPC   GL223644   1.389   0.521   3.575  0.0882 -0.0445 -0.2733
    1DIPC   C1A23645   0.868   0.533   3.693  0.0379  0.0324 -0.0992
    1DIPC   D2A23646   0.739   0.659   4.173 -0.1308 -0.2272  0.0556
    1DIPC   D3A23647   0.842   1.078   4.346 -0.1531 -0.0803  0.1316
    1DIPC   C4A23648   1.071   1.001   4.742  0.1659 -0.0530 -0.0446
    1DIPC   C1B23649   1.184   0.947   3.450  0.1342  0.1164 -0.2613
    1DIPC   D2B23650   1.281   1.313   3.534  0.0171 -0.1243 -0.1201
    1DIPC   D3B23651   1.377   1.244   3.940 -0.2033 -0.3254 -0.0425
    1DIPC   C4B23652   1.189   0.851   4.043  0.1956  0.0417 -0.0662
    1DIPC   NC323653  27.600  12.294   2.286  0.1323 -0.3532  0.4200
    1DIPC   PO423654  27.572  12.248   2.783 -0.0847 -0.0426  0.4529
    1DIPC   GL123655  27.833  12.011   2.878 -0.0782  0.0239  0.0376
    1DIPC   GL223656  28.076  12.214   2.965 -0.0727 -0.1938 -0.3781
    1DIPC   C1A23657  27.902  11.709   3.229 -0.1404  0.1017 -0.2356
    1DIPC   D2A23658  27.640  11.564   3.623 -0.1397 -0.2543 -0.1916
    1DIPC   D3A23659  27.382  11.200   3.683  0.1312  0.2438  0.1764
    1DIPC   C4A23660  27.256  10.866   3.392 -0.3031 -0.0719  0.0052
    1DIPC   C1B23661  27.829  12.173   3.357 -0.1128  0.1812 -0.0637
    1DIPC   D2B23662  27.440  12.271   3.262  0.0383  0.2730  0.0437
    1DIPC   D3B23663  27.406  11.836   3.256 -0.0213 -0.1962 -0.0541
    1DIPC   C4B23664  27.188  11.657   3.632 -0.1639  0.2511 -0.0083
    1DIPC   NC323665   5.193   5.685   3.448 -0.2031 -0.2227  0.1416
    1DIPC   PO423666   4.832   5.432   3.307 -0.1021 -0.2177 -0.2166
    1DIPC   GL123667   4.762   5.614   3.757  0.1184 -0.0487 -0.3567
    1DIPC   GL223668   4.599   5.428   3.881 -0.2121 -0.1702 -0.0190
    1DIPC   C1A23669   4.880   5.790   4.218 -0.0934 -0.2094  0.3560
    1DIPC   D2A23670   5.315   6.037   4.230 -0.1469  0.0326  0.1208
    1DIPC   D3A23671   5.060   6.056   4.634  0.0623 -0.2924 -0.2848
    1DIPC   C4A23672   5.087   6.057   5.061  0.0699  0.0786  0.1423
    1DIPC   C1B23673   4.594   5.376   4.365 -0.0433  0.2381 -0.0318
    1DIPC   D2B23674   4.482   5.722   4.727 -0.1430  0.2187 -0.1956
    1DIPC   D3B23675   4.160   5.987   4.624 -0.0932 -0.1628 -0.0581
    1DIPC   C4B23676   4.006   6.432   4.683  0.0323  0.1608  0.1229
    1DIPC   NC323677   0.921  12.076   2.807  0.2284  0.2168  0.1365
    1DIPC   PO423678   0.980  12.105   3.262 -0.2534 -0.0361 -0.3014
    1DIPC   GL123679   1.236  11.860   3.520  0.0313  0.0458 -0.1526
    1DIPC   GL223680   1.118  11.572   3.351  0.4303  0.4351 -0.2744
    1DIPC   C1A23681   1.181  11.626   3.883  0.0842  0.0091  0.0977
    1DIPC   D2A23682   1.059  11.497   4.352  0.2280 -0.1061  0.1307
    1DIPC   D3A23683   0.866  11.253   3.987 -0.1317  0.0030  0.0181
    1DIPC   C4A23684   1.042  11.118   3.676  0.3473 -0.2149  0.0868
    1DIPC   C1B23685   0.739  11.517   3.568 -0.0381  0.3873  0.1350
    1DIPC   D2B23686   0.546  11.727   3.959 -0.0640  0.4435 -0.2195
    1DIPC   D3B23687   0.345  12.068   4.085 -0.0394 -0.1382 -0.2476
    1DIPC   C4B23688   0.368  12.443   3.913  0.0722 -0.1023  0.0375
    1DIPC   NC323689   1.792  24.912   1.958 -0.0101 -0.0600 -0.2474
    1DIPC   PO423690   1.495  24.906   2.093 -0.0052  0.0971  0.1451
    1DIPC   GL123691   1.622  24.864   2.539 -0.0056  0.0824 -0.0410
    1DIPC   GL223692   1.524  24.957   2.770 -0.1480  0.0664  0.2520
    1DIPC   C1A23693   1.845  24.483   2.775 -0.0579 -0.0472 -0.1505
    1DIPC   D2A23694   1.987  24.066   3.006  0.0510 -0.2560  0.0462
    1DIPC   D3A23695   1.677  23.658   3.086 -0.1052 -0.1182 -0.1657
    1DIPC   C4A23696   1.360  23.693   3.413 -0.1100  0.2765  0.0606
    1DIPC   C1B23697   1.438  24.794   3.164  0.1616 -0.0329 -0.0729
    1DIPC   D2B23698   1.621  24.794   3.596  0.1253  0.1928 -0.1032
    1DIPC   D3B23699   2.070  24.675   3.520  0.2188 -0.1265 -0.1257
    1DIPC   C4B23700   2.241  24.492   3.082 -0.2673  0.0004 -0.3056
    1DIPC   NC323701   1.907  23.115   2.157  0.2972 -0.1010  0.1263
    1DIPC   PO423702   1.517  23.240   2.156 -0.1050  0.0217 -0.5739
    1DIPC   GL123703   1.460  23.137   2.595  0.0759  0.1150 -0.0475
    1DIPC   GL223704   1.084  23.187   2.778 -0.0195 -0.0275  0.1358
    1DIPC   C1A23705   1.645  23.137   2.995 -0.0016 -0.0607  0.0727
    1DIPC   D2A23706   1.942  22.794   3.151  0.0273 -0.1125 -0.1396
    1DIPC   D3A23707   1.616  22.720   3.448 -0.1091  0.3874 -0.2770
    1DIPC   C4A23708   1.525  22.232   3.590  0.1277 -0.0707 -0.2057
    1DIPC   C1B23709   1.146  23.059   3.188 -0.0806  0.1136  0.0213
    1DIPC   D2B23710   1.337  23.090   3.638  0.0121  0.1059 -0.1369
    1DIPC   D3B23711   0.990  23.336   3.622  0.0763  0.0844  0.1294
    1DIPC   C4B23712   0.939  23.488   4.121  0.1258 -0.1266 -0.1525
    1DIPC   NC323713  26.015   9.161   2.123  0.3164 -0.0350 -0.0400
    1DIPC   PO423714  26.520   9.468   2.172 -0.1515  0.0012 -0.0493
    1DIPC   GL123715  26.571   9.538   2.629  0.3107 -0.0782 -0.1418
    1DIPC   GL223716  26.378   9.711   2.785  0.2708 -0.0792  0.0535
    1DIPC   C1A23717  26.623   9.293   2.947  0.1290  0.0336 -0.4428
    1DIPC   D2A23718  26.955   9.112   3.245  0.3522 -0.0921 -0.2210
    1DIPC   D3A23719  27.117   8.975   3.697 -0.1803 -0.4034  0.1496
    1DIPC   C4A23720  27.396   8.764   4.058  0.0540  0.0857  0.4985
    1DIPC   C1B23721  26.332   9.751   3.170  0.3383 -0.0320 -0.2652
    1DIPC   D2B23722  26.498   9.651   3.562 -0.2903 -0.2194  0.4882
    1DIPC   D3B23723  26.683   9.911   3.841 -0.3868  0.0541 -0.1886
    1DIPC   C4B23724  26.795  10.302   3.739 -0.0335 -0.1454 -0.0544
    1DIPC   NC323725  25.432  29.369   3.332  0.1339  0.1179  0.2906
    1DIPC   PO423726  25.949  29.429   3.535  0.1174 -0.0595 -0.0186
    1DIPC   GL123727  25.844  29.597   3.881 -0.3464  0.0496 -0.0604
    1DIPC   GL223728  26.167  29.550   4.022  0.1219 -0.1891  0.0487
    1DIPC   C1A23729  25.695  29.702   4.254  0.0157  0.1015 -0.1918
    1DIPC   D2A23730  25.663  29.639   4.656 -0.4434  0.0141  0.0223
    1DIPC   D3A23731  25.465  29.478   5.086  0.0841 -0.0066 -0.0235
    1DIPC   C4A23732  25.451  29.009   5.085  0.0570 -0.0901  0.0132
    1DIPC   C1B23733  26.056  29.392   4.408 -0.0622 -0.0783  0.1142
    1DIPC   D2B23734  26.046  29.319   4.867 -0.0484  0.2947  0.0484
    1DIPC   D3B23735  26.402  29.012   5.003  0.2730  0.2958 -0.2235
    1DIPC   C4B23736  26.528  29.090   5.380 -0.1582 -0.1456 -0.0529
    1DIPC   NC323737  26.475  19.882   2.780 -0.0852 -0.1896 -0.0121
    1DIPC   PO423738  26.447  20.290   2.616  0.3346 -0.1695 -0.1993
    1DIPC   GL123739  26.627  20.348   2.966  0.2619 -0.2825 -0.0008
    1DIPC   GL223740  26.529  20.244   3.198  0.2525 -0.0774 -0.0484
    1DIPC   C1A23741  27.001  20.400   3.208  0.1440  0.2796 -0.0953
    1DIPC   D2A23742  27.196  20.334   3.600  0.1793 -0.2438 -0.1499
    1DIPC   D3A23743  27.049  20.231   3.945 -0.5383  0.0390 -0.1426
    1DIPC   C4A23744  26.810  20.586   4.212 -0.2259  0.0406 -0.0812
    1DIPC   C1B23745  26.685  20.330   3.581  0.1307  0.0237 -0.0030
    1DIPC   D2B23746  26.577  20.208   4.070  0.1252  0.0832  0.1737
    1DIPC   D3B23747  26.795  20.028   4.380  0.3256  0.1610  0.0526
    1DIPC   C4B23748  27.104  20.254   4.486 -0.1510  0.0962  0.2700
    1DIPC   NC323749  27.042  11.625   2.737  0.0494  0.1420 -0.1120
    1DIPC   PO423750  26.741  11.303   2.740 -0.0633  0.0479 -0.3942
    1DIPC   GL123751  26.630  11.737   2.959 -0.3766 -0.0824  0.1208
    1DIPC   GL223752  26.637  11.683   3.275  0.0215  0.1409 -0.0009
    1DIPC   C1A23753  26.407  12.092   3.351 -0.3189 -0.1193 -0.3324
    1DIPC   D2A23754  26.073  12.047   3.661 -0.0028 -0.0353  0.1750
    1DIPC   D3A23755  26.002  12.475   3.863  0.1493 -0.1048  0.1518
    1DIPC   C4A23756  25.802  12.769   3.654 -0.0113 -0.0251  0.1689
    1DIPC   C1B23757  26.738  11.752   3.785 -0.2051 -0.2583 -0.0822
    1DIPC   D2B23758  26.776  11.960   4.187 -0.0538  0.2863  0.1489
    1DIPC   D3B23759  27.034  12.282   4.074  0.3680 -0.0861 -0.1880
    1DIPC   C4B23760  27.444  12.260   4.204 -0.1921 -0.0268  0.0144
    1DIPC   NC323761  16.896   4.870   2.677  0.0691 -0.0916  0.0641
    1DIPC   PO423762  17.130   5.247   2.553  0.0453  0.2064  0.1240
    1DIPC   GL123763  17.099   5.218   2.931  0.1546  0.0839 -0.0529
    1DIPC   GL223764  17.208   4.948   3.033  0.1555 -0.0044  0.1384
    1DIPC   C1A23765  17.065   5.312   3.392 -0.0933  0.1279  0.2285
    1DIPC   D2A23766  16.727   5.385   3.676  0.0280 -0.0229 -0.1303
    1DIPC   D3A23767  16.681   5.498   4.077 -0.2465  0.0314 -0.2080
    1DIPC   C4A23768  17.017   5.651   4.291 -0.0273  0.0521  0.2126
    1DIPC   C1B23769  17.485   4.742   3.128 -0.1041  0.0389  0.0505
    1DIPC   D2B23770  17.845   4.608   3.161  0.5236 -0.1170  0.0037
    1DIPC   D3B23771  17.533   4.394   3.481  0.0389 -0.1682 -0.1409
    1DIPC   C4B23772  17.057   4.591   3.455  0.0986  0.0667  0.0287
    1DIPC   NC323773   4.276   6.408   3.082  0.1403 -0.2757  0.0075
    1DIPC   PO423774   4.020   6.746   3.265  0.0509  0.2045  0.0220
    1DIPC   GL123775   3.970   6.881   3.761  0.1466  0.1975  0.1614
    1DIPC   GL223776   3.612   6.730   3.774  0.0989  0.0112  0.1997
    1DIPC   C1A23777   3.776   7.207   4.063  0.2485 -0.2088 -0.0858
    1DIPC   D2A23778   3.971   7.288   4.548  0.1273 -0.1393  0.1037
    1DIPC   D3A23779   3.719   7.439   4.961 -0.1276  0.1574  0.0808
    1DIPC   C4A23780   3.649   7.867   5.191 -0.0020  0.2182  0.1580
    1DIPC   C1B23781   3.348   7.072   3.881 -0.2437 -0.1500 -0.3579
    1DIPC   D2B23782   3.079   7.119   4.230  0.1781  0.3004 -0.1835
    1DIPC   D3B23783   3.306   6.782   4.344 -0.1921  0.0723 -0.4031
    1DIPC   C4B23784   3.612   6.888   4.542  0.0988 -0.1072 -0.1932
    1DIPC   NC323785  15.626   5.698   3.095  0.3274  0.1016 -0.3062
    1DIPC   PO423786  15.294   5.894   3.222  0.1026  0.0123  0.1239
    1DIPC   GL123787  15.483   5.914   3.638 -0.2513  0.1551 -0.1125
    1DIPC   GL223788  15.772   5.779   3.621  0.0187 -0.3698 -0.0540
    1DIPC   C1A23789  15.807   6.136   3.904  0.1605 -0.2703 -0.1810
    1DIPC   D2A23790  15.904   6.423   4.271 -0.2179 -0.0817 -0.2054
    1DIPC   D3A23791  15.836   6.529   4.667  0.1315  0.1011  0.1078
    1DIPC   C4A23792  15.470   6.464   4.827 -0.0985 -0.1820  0.1524
    1DIPC   C1B23793  15.798   5.698   4.099 -0.1331 -0.1979 -0.0772
    1DIPC   D2B23794  16.214   5.611   4.360  0.2886 -0.0278  0.4948
    1DIPC   D3B23795  15.915   5.360   4.492 -0.0090 -0.1070 -0.1431
    1DIPC   C4B23796  15.707   5.264   4.897  0.0251  0.1095 -0.2152
    1DIPC   NC323797  16.257   2.347   2.925  0.1356 -0.1909  0.1455
    1DIPC   PO423798  15.970   2.105   3.158  0.0376 -0.1015  0.0406
    1DIPC   GL123799  16.172   2.196   3.427 -0.2365 -0.0755 -0.0257
    1DIPC   GL223800  16.248   1.940   3.570 -0.1260 -0.1095  0.0988
    1DIPC   C1A23801  16.280   2.530   3.826  0.0852 -0.1817 -0.1149
    1DIPC   D2A23802  16.540   2.362   4.061  0.4473 -0.0688 -0.1442
    1DIPC   D3A23803  16.644   2.048   3.759 -0.1625 -0.0520  0.3236
    1DIPC   C4A23804  17.059   1.967   3.815  0.4122  0.1855  0.1460
    1DIPC   C1B23805  16.164   1.900   4.050 -0.1868 -0.1915  0.1746
    1DIPC   D2B23806  16.068   1.963   4.564  0.0006  0.2777  0.3724
    1DIPC   D3B23807  15.741   1.836   4.645  0.1001 -0.0177  0.3148
    1DIPC   C4B23808  15.253   1.899   4.478  0.2288 -0.1731  0.2825
    1DIPC   NC323809  10.027   5.824   3.362  0.1172  0.1618 -0.1146
    1DIPC   PO423810  10.050   5.781   3.786  0.2798  0.1482 -0.0878
    1DIPC   GL123811   9.966   5.909   4.154  0.0037  0.1750 -0.1466
    1DIPC   GL223812   9.650   5.882   4.337  0.0202  0.3194  0.2688
    1DIPC   C1A23813  10.140   5.923   4.503  0.0569  0.0502 -0.3566
    1DIPC   D2A23814   9.802   5.832   4.857  0.1857  0.1277  0.2979
    1DIPC   D3A23815   9.641   6.073   5.169 -0.1561  0.0351  0.2927
    1DIPC   C4A23816   9.529   5.957   5.566 -0.2793  0.1532  0.1651
    1DIPC   C1B23817   9.469   5.505   4.492  0.2748 -0.1175 -0.0068
    1DIPC   D2B23818   9.517   5.087   4.369 -0.3263  0.1425 -0.2917
    1DIPC   D3B23819   9.330   5.111   4.765  0.0816  0.0740 -0.4262
    1DIPC   C4B23820   9.050   4.715   5.002 -0.1061  0.1562 -0.0220
    1DIPC   NC323821  26.851   9.873   1.974  0.3287  0.0364 -0.0049
    1DIPC   PO423822  27.163  10.058   2.237  0.0402 -0.3048  0.2469
    1DIPC   GL123823  27.226  10.073   2.643  0.1254 -0.2769  0.0091
    1DIPC   GL223824  27.076   9.740   2.787 -0.3161 -0.2358  0.2495
    1DIPC   C1A23825  27.351  10.097   2.983 -0.5177  0.0349 -0.1932
    1DIPC   D2A23826  27.312   9.904   3.417 -0.0148 -0.0413  0.3962
    1DIPC   D3A23827  27.704   9.874   3.484 -0.0603 -0.1412  0.2502
    1DIPC   C4A23828  27.832  10.069   3.832  0.2774 -0.1832  0.0686
    1DIPC   C1B23829  26.936   9.705   3.075 -0.2319 -0.0525 -0.2889
    1DIPC   D2B23830  26.831   9.957   3.398  0.0177  0.1680  0.1342
    1DIPC   D3B23831  27.019   9.554   3.561  0.0403 -0.1586  0.3106
    1DIPC   C4B23832  26.925   9.514   3.924  0.2382  0.0559  0.4390
    1DIPC   NC323833  17.785  21.534   2.389 -0.0620 -0.0038 -0.1847
    1DIPC   PO423834  17.883  21.394   2.780  0.0514 -0.0881  0.1039
    1DIPC   GL123835  17.873  21.556   3.092  0.1116 -0.1429 -0.2368
    1DIPC   GL223836  18.108  21.782   3.081 -0.1393  0.2118  0.2827
    1DIPC   C1A23837  17.790  21.741   3.540  0.0135  0.0865  0.0091
    1DIPC   D2A23838  17.764  21.749   3.961 -0.0754 -0.4405  0.1959
    1DIPC   D3A23839  18.150  22.036   3.707  0.1388 -0.0410 -0.3966
    1DIPC   C4A23840  18.364  22.303   3.927 -0.2663 -0.2908 -0.2578
    1DIPC   C1B23841  17.926  22.119   3.212 -0.2608 -0.0937 -0.2673
    1DIPC   D2B23842  17.865  22.447   3.480 -0.1021 -0.0808 -0.2721
    1DIPC   D3B23843  18.303  22.486   3.403  0.4035 -0.1045 -0.3361
    1DIPC   C4B23844  18.496  22.158   3.262 -0.0924  0.2064 -0.1474
    1DIPC   NC323845   3.163  28.417   3.084 -0.1774  0.2621  0.3414
    1DIPC   PO423846   2.746  28.065   3.058 -0.0761  0.0827 -0.2188
    1DIPC   GL123847   2.702  27.903   3.346 -0.1235 -0.2154 -0.0780
    1DIPC   GL223848   2.954  28.091   3.518  0.2454  0.0220  0.0514
    1DIPC   C1A23849   2.549  27.891   3.751 -0.0405  0.3753 -0.0679
    1DIPC   D2A23850   2.579  27.945   4.173  0.1357  0.0841 -0.2417
    1DIPC   D3A23851   2.984  27.868   3.986  0.1754 -0.2580  0.1967
    1DIPC   C4A23852   3.335  27.640   4.117  0.1740  0.2376  0.4735
    1DIPC   C1B23853   2.911  28.338   3.974 -0.0150  0.4621  0.3703
    1DIPC   D2B23854   2.879  28.221   4.401  0.0888  0.1466  0.0462
    1DIPC   D3B23855   2.441  28.202   4.639  0.1930 -0.1221 -0.1040
    1DIPC   C4B23856   2.309  27.761   4.571 -0.2112 -0.0358 -0.0976
    1DIPC   NC323857  27.703   0.451   2.774  0.1413 -0.2673 -0.0000
    1DIPC   PO423858  28.042   0.338   3.118 -0.0495 -0.1567  0.1420
    1DIPC   GL123859  27.938   0.653   3.339  0.3131  0.0804 -0.1709
    1DIPC   GL223860  27.739   0.899   3.089  0.1817  0.2533  0.2629
    1DIPC   C1A23861  27.826   0.679   3.836 -0.0670 -0.2944 -0.2156
    1DIPC   D2A23862  28.068   0.658   4.148  0.0549  0.1032  0.0536
    1DIPC   D3A23863  27.930   0.451   4.489  0.1286 -0.1276  0.1132
    1DIPC   C4A23864  28.129   0.545   4.807 -0.2876 -0.0122 -0.0681
    1DIPC   C1B23865  27.627   1.001   3.507 -0.3034  0.3123  0.0274
    1DIPC   D2B23866  27.571   1.184   3.935 -0.0856 -0.2642 -0.1342
    1DIPC   D3B23867  27.669   1.304   4.329  0.1916  0.0472 -0.2474
    1DIPC   C4B23868  27.911   1.006   4.394 -0.1186  0.2740  0.0685
    1DIPC   NC323869   5.747  12.604   2.385  0.1847  0.1268  0.0190
    1DIPC   PO423870   5.672  12.370   2.738  0.0615 -0.3506  0.0138
    1DIPC   GL123871   5.713  12.254   3.152  0.2536  0.0648 -0.1652
    1DIPC   GL223872   5.995  12.071   3.205 -0.1283  0.0969  0.0449
    1DIPC   C1A23873   5.592  12.063   3.541  0.1765  0.1088  0.2112
    1DIPC   D2A23874   5.635  11.880   3.927 -0.0629 -0.0948 -0.1848
    1DIPC   D3A23875   5.674  12.047   4.340  0.3435  0.1123 -0.1214
    1DIPC   C4A23876   5.356  12.259   4.561  0.0750  0.3735 -0.0732
    1DIPC   C1B23877   5.974  12.347   3.554  0.0566  0.3200  0.2649
    1DIPC   D2B23878   6.287  12.579   3.735  0.0099 -0.3315 -0.1112
    1DIPC   D3B23879   6.676  12.769   3.896 -0.1847 -0.0889 -0.0861
    1DIPC   C4B23880   6.804  12.862   4.266  0.3906 -0.1786  0.1668
    1DIPC   NC323881  26.217  21.039   3.033 -0.0258 -0.1766 -0.1853
    1DIPC   PO423882  26.412  20.757   2.813  0.0844  0.0056 -0.1064
    1DIPC   GL123883  26.782  20.895   3.011 -0.0878 -0.0088 -0.0696
    1DIPC   GL223884  26.711  20.767   3.271  0.3517  0.0272  0.1753
    1DIPC   C1A23885  27.258  20.856   3.127  0.3461  0.1334 -0.2616
    1DIPC   D2A23886  27.645  20.818   3.183 -0.1520 -0.1578  0.0454
    1DIPC   D3A23887  27.573  20.803   3.577  0.3997  0.0852 -0.0063
    1DIPC   C4A23888  27.314  20.947   3.663  0.1217 -0.0954  0.2752
    1DIPC   C1B23889  26.822  20.919   3.747 -0.2015 -0.1509 -0.1841
    1DIPC   D2B23890  27.053  21.063   4.059 -0.1163 -0.0529 -0.3645
    1DIPC   D3B23891  27.300  20.629   4.137 -0.2368  0.1687  0.3113
    1DIPC   C4B23892  27.724  20.711   4.347  0.0702 -0.1143 -0.2229
    1DIPC   NC323893  16.748  28.194   3.262 -0.0309 -0.0247 -0.0125
    1DIPC   PO423894  16.572  27.917   3.598  0.0173  0.0040  0.1666
    1DIPC   GL123895  16.227  27.982   3.881 -0.1714 -0.2614  0.1240
    1DIPC   GL223896  16.051  27.713   3.873  0.2287 -0.1320 -0.1851
    1DIPC   C1A23897  15.991  28.097   4.297  0.0142 -0.0979 -0.0527
    1DIPC   D2A23898  15.908  28.162   4.719 -0.1132  0.0242  0.3096
    1DIPC   D3A23899  15.540  28.303   4.608  0.0011 -0.0162 -0.5682
    1DIPC   C4A23900  15.409  28.229   4.227  0.0244 -0.0914  0.0340
    1DIPC   C1B23901  15.975  27.501   4.266 -0.0441 -0.0295 -0.1635
    1DIPC   D2B23902  16.163  27.701   4.722 -0.0765 -0.0918 -0.1700
    1DIPC   D3B23903  16.616  27.632   4.864 -0.0452 -0.0243  0.3397
    1DIPC   C4B23904  16.881  27.760   4.571  0.0666 -0.1770 -0.2595
    1DIPC   NC323905  19.200  24.390   3.377 -0.0367  0.1568 -0.0440
    1DIPC   PO423906  19.311  23.966   3.258 -0.2482 -0.1444 -0.1993
    1DIPC   GL123907  19.440  24.026   3.684  0.3590  0.1290  0.0508
    1DIPC   GL223908  19.706  23.826   3.837 -0.2762 -0.1350 -0.1444
    1DIPC   C1A23909  19.216  24.123   4.035  0.1643  0.1245  0.2636
    1DIPC   D2A23910  18.896  24.098   4.348 -0.2527 -0.2655 -0.1760
    1DIPC   D3A23911  18.841  23.710   4.598  0.0792 -0.2006 -0.0985
    1DIPC   C4A23912  19.114  23.612   4.883 -0.1897  0.0009 -0.0164
    1DIPC   C1B23913  19.639  23.883   4.288  0.1162 -0.2161 -0.2025
    1DIPC   D2B23914  19.359  23.938   4.578  0.1242  0.3552  0.1235
    1DIPC   D3B23915  19.380  24.113   5.036  0.3584  0.0367 -0.3001
    1DIPC   C4B23916  19.268  24.089   5.488 -0.0415 -0.0304 -0.2591
    1DIPC   NC323917  21.669   5.384   2.687  0.0375  0.0263 -0.1563
    1DIPC   PO423918  21.434   5.129   2.602 -0.0057 -0.3760 -0.0970
    1DIPC   GL123919  21.282   4.932   2.938  0.2354 -0.1983 -0.3161
    1DIPC   GL223920  21.256   5.164   3.173 -0.3542  0.0392 -0.0676
    1DIPC   C1A23921  20.998   4.757   3.252  0.1894 -0.3175  0.2228
    1DIPC   D2A23922  20.727   4.747   3.620  0.0726 -0.0794 -0.1038
    1DIPC   D3A23923  20.905   4.917   3.902  0.2382 -0.0236  0.1324
    1DIPC   C4A23924  20.728   5.214   3.933  0.3214 -0.1210 -0.0546
    1DIPC   C1B23925  21.184   5.138   3.569  0.1559 -0.0095  0.2811
    1DIPC   D2B23926  21.327   5.215   3.877  0.0259  0.0676 -0.2635
    1DIPC   D3B23927  21.220   5.014   4.288 -0.0504  0.2366 -0.1290
    1DIPC   C4B23928  20.844   5.072   4.424  0.0456 -0.0552 -0.0604
    1DIPC   NC323929  17.937  23.837   3.236 -0.1337 -0.2037 -0.2750
    1DIPC   PO423930  18.387  23.715   3.312 -0.1052  0.2346  0.0222
    1DIPC   GL123931  18.279  23.852   3.713 -0.3027 -0.0288  0.0086
    1DIPC   GL223932  17.986  23.963   3.779  0.1610 -0.3221  0.0392
    1DIPC   C1A23933  18.314  24.008   4.097 -0.0113  0.1189  0.1447
    1DIPC   D2A23934  18.022  24.023   4.432 -0.2508 -0.0618 -0.1222
    1DIPC   D3A23935  17.774  23.668   4.429 -0.0193  0.1937  0.0447
    1DIPC   C4A23936  17.393  23.696   4.736  0.1393 -0.1628 -0.0924
    1DIPC   C1B23937  17.776  23.687   3.905 -0.0872 -0.0938 -0.1033
    1DIPC   D2B23938  17.401  23.531   4.046 -0.1250 -0.0637 -0.0961
    1DIPC   D3B23939  17.304  23.196   3.916  0.2107 -0.2279 -0.0338
    1DIPC   C4B23940  17.487  22.739   3.923  0.0119 -0.2939  0.0864
    1DIPC   NC323941  16.678   8.442   2.136 -0.1732  0.0426  0.1054
    1DIPC   PO423942  16.552   8.316   2.466  0.0056  0.0394 -0.0031
    1DIPC   GL123943  16.750   8.253   2.845  0.0837  0.2090  0.0302
    1DIPC   GL223944  16.940   7.973   2.814  0.0206  0.0934 -0.1572
    1DIPC   C1A23945  16.642   8.161   3.244 -0.2200 -0.1993 -0.0385
    1DIPC   D2A23946  16.574   7.997   3.683 -0.1696 -0.2972  0.0741
    1DIPC   D3A23947  16.798   8.027   3.952  0.4351 -0.1876 -0.0396
    1DIPC   C4A23948  16.992   7.738   4.235  0.0425 -0.2112 -0.1998
    1DIPC   C1B23949  17.166   8.060   3.182 -0.0296  0.0948  0.3996
    1DIPC   D2B23950  16.988   8.353   3.587  0.2299  0.0093  0.0080
    1DIPC   D3B23951  17.365   8.450   3.717  0.2257 -0.2204  0.2795
    1DIPC   C4B23952  17.704   8.427   4.004  0.1756 -0.0985  0.1744
    1DIPC   NC323953   0.144  15.516   1.778 -0.0013 -0.0125  0.0255
    1DIPC   PO423954   0.447  15.534   2.219 -0.0942 -0.3632  0.1022
    1DIPC   GL123955   0.488  15.492   2.582 -0.0859 -0.1035  0.0926
    1DIPC   GL223956   0.919  15.386   2.544  0.1180 -0.0094 -0.1024
    1DIPC   C1A23957   0.697  15.585   3.035  0.1265  0.0706  0.1308
    1DIPC   D2A23958   0.625  15.860   3.423 -0.2020 -0.1179 -0.0072
    1DIPC   D3A23959   0.939  15.789   3.600  0.0219  0.0958  0.0965
    1DIPC   C4A23960   0.911  15.817   4.072  0.4392 -0.1843 -0.2292
    1DIPC   C1B23961   1.140  15.303   2.898 -0.3304  0.1101  0.2766
    1DIPC   D2B23962   1.042  15.326   3.315  0.1835 -0.0722 -0.2291
    1DIPC   D3B23963   0.917  14.981   3.235  0.2533 -0.1751 -0.0847
    1DIPC   C4B23964   0.643  15.126   2.920  0.1302  0.0267  0.0846
    1DIPC   NC323965   5.745  22.942   2.532 -0.0382  0.2958 -0.1028
    1DIPC   PO423966   5.505  23.308   2.684  0.2839 -0.1285  0.0115
    1DIPC   GL123967   5.436  23.424   3.042 -0.2807 -0.3409  0.1623
    1DIPC   GL223968   5.173  23.308   3.111  0.0758  0.0247  0.3496
    1DIPC   C1A23969   5.540  23.149   3.431  0.0839  0.0136 -0.0082
    1DIPC   D2A23970   5.528  23.218   3.866  0.2325  0.1138  0.2219
    1DIPC   D3A23971   5.338  22.831   3.846 -0.1384  0.1144  0.1439
    1DIPC   C4A23972   5.524  22.608   3.483  0.0626  0.1237 -0.0786
    1DIPC   C1B23973   4.999  23.241   3.549 -0.0022  0.3205 -0.2851
    1DIPC   D2B23974   5.039  23.186   4.057 -0.1171  0.3180  0.0709
    1DIPC   D3B23975   5.384  23.547   4.222  0.0939 -0.0403  0.0339
    1DIPC   C4B23976   5.767  23.358   4.456 -0.1120 -0.0824 -0.2863
    1DIPC   NC323977  14.728   3.283   3.152 -0.1148  0.1540 -0.1279
    1DIPC   PO423978  14.270   3.379   3.408 -0.1662 -0.0017 -0.2127
    1DIPC   GL123979  14.396   3.431   3.766  0.0316  0.1078 -0.3061
    1DIPC   GL223980  14.452   3.156   3.961 -0.0269  0.0194 -0.0903
    1DIPC   C1A23981  14.683   3.661   3.943 -0.1086 -0.1770 -0.1177
    1DIPC   D2A23982  14.759   3.824   4.331  0.0950  0.1536  0.0359
    1DIPC   D3A23983  14.418   3.550   4.337 -0.3182  0.0165 -0.2371
    1DIPC   C4A23984  14.005   3.592   4.550  0.1469  0.3256  0.1248
    1DIPC   C1B23985  14.711   2.758   4.171 -0.0665 -0.0279 -0.1252
    1DIPC   D2B23986  15.015   2.477   4.190 -0.1189 -0.1499  0.0426
    1DIPC   D3B23987  15.155   2.563   4.528 -0.1230  0.1378  0.0770
    1DIPC   C4B23988  15.412   2.942   4.483 -0.2112  0.0724 -0.0377
    1DIPC   NC323989  23.242   7.651   2.720  0.1575  0.2970  0.1742
    1DIPC   PO423990  23.319   7.314   2.947 -0.1553  0.1551 -0.0654
    1DIPC   GL123991  23.387   7.203   3.336 -0.0418 -0.0657 -0.1962
    1DIPC   GL223992  23.637   7.256   3.392 -0.2668 -0.3682  0.0134
    1DIPC   C1A23993  22.982   7.194   3.724  0.0491  0.2389 -0.2765
    1DIPC   D2A23994  22.677   7.134   3.973  0.1456 -0.0260 -0.1364
    1DIPC   D3A23995  22.734   7.190   4.450 -0.3724 -0.2677  0.0545
    1DIPC   C4A23996  22.974   6.836   4.570 -0.1333  0.0638  0.1133
    1DIPC   C1B23997  23.783   7.352   3.787 -0.1811 -0.3102  0.2445
    1DIPC   D2B23998  23.522   7.576   4.183  0.0177 -0.1817  0.0195
    1DIPC   D3B23999  23.021   7.543   4.204 -0.0543 -0.0239  0.1557
    1DIPC   C4B24000  22.896   7.751   3.853 -0.2402  0.0869 -0.2489
    1DIPC   NC324001   4.077   1.010   3.017 -0.1545 -0.0907 -0.2025
    1DIPC   PO424002   4.221   0.701   3.328 -0.0871 -0.1047  0.1973
    1DIPC   GL124003   3.943   0.401   3.615  0.1068  0.0970  0.0614
    1DIPC   GL224004   3.595   0.319   3.625  0.0410 -0.0887  0.0005
    1DIPC   C1A24005   3.880   0.122   4.041  0.1379  0.2031 -0.0394
    1DIPC   D2A24006   3.622  -0.228   4.343 -0.0993 -0.1136 -0.1899
    1DIPC   D3A24007   3.660  -0.154   4.715  0.1561 -0.0554  0.1099
    1DIPC   C4A24008   3.664  -0.399   5.059  0.2587  0.3517 -0.1791
    1DIPC   C1B24009   3.247   0.224   3.913  0.3171  0.0237 -0.0356
    1DIPC   D2B24010   3.255   0.113   4.416 -0.1103  0.0688 -0.1202
    1DIPC   D3B24011   2.841   0.423   4.698 -0.0165  0.0956  0.2287
    1DIPC   C4B24012   3.158   0.708   4.773 -0.1474  0.0721  0.3613
    1DIPC   NC324013  14.780   0.662   3.081  0.2146  0.1376  0.2088
    1DIPC   PO424014  14.980   0.617   3.459 -0.0082  0.0035  0.0812
    1DIPC   GL124015  14.878   0.755   3.854 -0.2007 -0.0769 -0.1196
    1DIPC   GL224016  14.469   0.754   4.106 -0.0721 -0.2018 -0.1674
    1DIPC   C1A24017  14.881   0.842   4.312  0.1162 -0.0807  0.1378
    1DIPC   D2A24018  14.775   0.938   4.746  0.1106  0.2024  0.0503
    1DIPC   D3A24019  15.188   0.994   4.615 -0.0735 -0.2798  0.1860
    1DIPC   C4A24020  15.406   0.681   4.289  0.2723  0.1082  0.1996
    1DIPC   C1B24021  14.294   0.884   4.611 -0.1437  0.1801  0.1400
    1DIPC   D2B24022  13.964   0.893   4.932  0.1151 -0.0401 -0.3196
    1DIPC   D3B24023  13.845   0.565   5.085 -0.3205 -0.0603 -0.4296
    1DIPC   C4B24024  13.480   0.557   5.353  0.1136 -0.3384  0.0361
    1DIPC   NC324025  23.373   1.782   2.889 -0.0517  0.0516 -0.2432
    1DIPC   PO424026  23.194   2.058   3.190 -0.1771 -0.1293  0.3514
    1DIPC   GL124027  22.988   2.005   3.665 -0.0878 -0.0046  0.0445
    1DIPC   GL224028  22.822   2.283   3.599  0.1690 -0.1945  0.0328
    1DIPC   C1A24029  22.876   2.005   3.998 -0.0507 -0.1242 -0.0690
    1DIPC   D2A24030  22.940   1.867   4.381 -0.0692  0.0064  0.0371
    1DIPC   D3A24031  23.231   2.150   4.570 -0.2197  0.0720 -0.2414
    1DIPC   C4A24032  23.471   2.081   4.929  0.1909  0.1369 -0.1060
    1DIPC   C1B24033  23.100   2.399   3.968  0.0346  0.0903 -0.0325
    1DIPC   D2B24034  23.239   2.612   4.385 -0.1902 -0.5416 -0.0928
    1DIPC   D3B24035  22.983   2.637   4.795 -0.1913  0.0855  0.0880
    1DIPC   C4B24036  23.130   2.471   5.184  0.1598 -0.2328 -0.3594
    1DIPC   NC324037  26.399  13.215   2.340 -0.1832  0.0618  0.1421
    1DIPC   PO424038  26.191  12.771   2.400  0.0074  0.0286 -0.2161
    1DIPC   GL124039  26.325  12.921   2.781  0.0903 -0.0562  0.1456
    1DIPC   GL224040  26.116  13.083   2.784 -0.3187 -0.1286  0.0709
    1DIPC   C1A24041  26.295  13.008   3.210 -0.1093  0.0428  0.0428
    1DIPC   D2A24042  26.297  13.153   3.616 -0.0732  0.0290 -0.2535
    1DIPC   D3A24043  26.645  13.399   3.478 -0.1532 -0.0128  0.1567
    1DIPC   C4A24044  26.442  13.660   3.206 -0.1025 -0.0336  0.1068
    1DIPC   C1B24045  26.016  13.377   3.167  0.1229 -0.1545 -0.1753
    1DIPC   D2B24046  25.822  13.420   3.517 -0.2655  0.1672 -0.0906
    1DIPC   D3B24047  26.128  13.695   3.697 -0.0212 -0.0779 -0.0030
    1DIPC   C4B24048  26.536  13.671   3.934 -0.0439  0.0312 -0.1168
    1DIPC   NC324049  22.137  26.516   3.146 -0.0707  0.3265 -0.1001
    1DIPC   PO424050  22.181  26.970   3.317 -0.2147  0.2464  0.0466
    1DIPC   GL124051  22.231  26.731   3.649  0.0478 -0.0075  0.0526
    1DIPC   GL224052  21.966  26.652   3.802  0.3867 -0.1979  0.0724
    1DIPC   C1A24053  22.455  26.637   3.991 -0.1328  0.3273 -0.3619
    1DIPC   D2A24054  22.653  26.485   4.330  0.2646  0.5009  0.0392
    1DIPC   D3A24055  22.482  26.637   4.686 -0.1690 -0.2212 -0.0920
    1DIPC   C4A24056  22.297  26.428   5.062  0.1937 -0.0322  0.2538
    1DIPC   C1B24057  21.906  26.798   4.197 -0.0025  0.1295  0.0255
    1DIPC   D2B24058  22.015  27.030   4.629  0.1824  0.0844 -0.0623
    1DIPC   D3B24059  22.208  27.392   4.427 -0.1019 -0.0189  0.1158
    1DIPC   C4B24060  22.216  27.672   4.137  0.0236  0.1140 -0.4060
    1DIPC   NC324061  25.387   2.762   2.769  0.1507  0.1809 -0.0378
    1DIPC   PO424062  25.283   2.771   3.162 -0.1113  0.3320 -0.0987
    1DIPC   GL124063  25.405   2.968   3.484 -0.2170 -0.4836 -0.2041
    1DIPC   GL224064  25.444   2.861   3.763 -0.0172  0.3370  0.2984
    1DIPC   C1A24065  25.688   3.364   3.748 -0.0527 -0.0216 -0.0073
    1DIPC   D2A24066  25.804   3.713   3.939 -0.0246 -0.3767 -0.4693
    1DIPC   D3A24067  25.697   3.621   4.381  0.0692  0.0029  0.2154
    1DIPC   C4A24068  25.571   3.263   4.380 -0.2615 -0.0695 -0.0791
    1DIPC   C1B24069  25.683   2.687   4.137  0.0087 -0.1466  0.0068
    1DIPC   D2B24070  25.769   2.307   4.540  0.0393  0.1596 -0.0089
    1DIPC   D3B24071  25.394   2.360   4.946  0.0620 -0.2103  0.0824
    1DIPC   C4B24072  24.981   2.151   4.956 -0.0983  0.0330 -0.0203
    1DIPC   NC324073  20.725   3.538   2.830 -0.0001  0.0107 -0.1368
    1DIPC   PO424074  21.136   3.277   2.969  0.1331  0.0404  0.4469
    1DIPC   GL124075  21.061   3.386   3.384 -0.0481 -0.1158  0.0786
    1DIPC   GL224076  21.272   3.598   3.558  0.1798  0.0044 -0.1103
    1DIPC   C1A24077  20.956   3.074   3.767 -0.0021 -0.2601  0.0558
    1DIPC   D2A24078  21.260   2.970   4.063 -0.1131 -0.1820  0.2588
    1DIPC   D3A24079  21.282   3.005   4.464 -0.1685 -0.2186  0.3232
    1DIPC   C4A24080  21.075   3.324   4.690 -0.0969 -0.0027 -0.1434
    1DIPC   C1B24081  21.083   3.492   3.968 -0.1763 -0.0026 -0.1816
    1DIPC   D2B24082  20.980   3.721   4.458  0.0163 -0.1181  0.1001
    1DIPC   D3B24083  20.608   3.605   4.652 -0.1198 -0.1177  0.1832
    1DIPC   C4B24084  20.529   3.179   4.728 -0.1089  0.1098  0.0830
    1DIPC   NC324085  24.872   2.424   3.436  0.0892 -0.0591  0.5480
    1DIPC   PO424086  24.541   2.449   3.797 -0.2242  0.0042 -0.0486
    1DIPC   GL124087  24.863   2.479   4.075  0.1648  0.0455 -0.0755
    1DIPC   GL224088  25.188   2.506   3.917  0.0077 -0.3220  0.1964
    1DIPC   C1A24089  24.669   2.332   4.376 -0.1132  0.1709 -0.1897
    1DIPC   D2A24090  24.537   2.224   4.747  0.2747 -0.0196 -0.3773
    1DIPC   D3A24091  24.628   2.655   4.794 -0.5218  0.0439  0.0501
    1DIPC   C4A24092  24.705   2.814   4.402  0.0558  0.1753  0.0426
    1DIPC   C1B24093  25.308   2.333   4.276  0.1286  0.0632  0.2030
    1DIPC   D2B24094  25.106   2.563   4.589 -0.0062 -0.1440  0.0349
    1DIPC   D3B24095  25.452   2.807   4.597  0.1012  0.0153 -0.2176
    1DIPC   C4B24096  25.492   3.162   4.866 -0.0397 -0.0516 -0.0005
    1DIPC   NC324097  23.526   6.333   3.240 -0.1396  0.1992 -0.2957
    1DIPC   PO424098  23.694   6.733   3.327 -0.0487 -0.0102  0.0666
    1DIPC   GL124099  23.700   6.736   3.716 -0.2261  0.2571 -0.3629
    1DIPC   GL224100  23.953   6.639   3.879  0.2148  0.1146 -0.0691
    1DIPC   C1A24101  23.430   7.009   3.844 -0.0853 -0.2079 -0.2711
    1DIPC   D2A24102  23.238   7.075   4.172 -0.0704 -0.2164  0.1498
    1DIPC   D3A24103  23.358   7.322   4.581 -0.1138 -0.0471 -0.2636
    1DIPC   C4A24104  23.166   7.220   4.915  0.4044 -0.1823 -0.0514
    1DIPC   C1B24105  24.016   6.631   4.343  0.2751  0.0181  0.3700
    1DIPC   D2B24106  24.310   6.577   4.668  0.1880 -0.1140 -0.1330
    1DIPC   D3B24107  24.598   6.284   4.346 -0.1462 -0.2763  0.1714
    1DIPC   C4B24108  24.732   5.894   4.434 -0.2310 -0.3321  0.0685
    1DIPC   NC324109  13.172  27.653   3.065 -0.2248 -0.1090  0.0943
    1DIPC   PO424110  13.511  27.648   3.413 -0.0625 -0.0255 -0.0996
    1DIPC   GL124111  13.172  27.515   3.791  0.0471 -0.0162  0.1315
    1DIPC   GL224112  13.088  27.706   4.009 -0.0327  0.0252  0.0985
    1DIPC   C1A24113  12.876  27.374   4.227  0.0447  0.1029 -0.0827
    1DIPC   D2A24114  12.963  27.350   4.696  0.2259 -0.0065 -0.0802
    1DIPC   D3A24115  13.000  27.003   4.991 -0.0942 -0.0523 -0.0093
    1DIPC   C4A24116  13.333  26.849   4.920  0.0449 -0.1901  0.0204
    1DIPC   C1B24117  13.404  27.479   4.263  0.2883  0.0262 -0.1439
    1DIPC   D2B24118  13.400  27.077   4.457  0.0272  0.0006 -0.2546
    1DIPC   D3B24119  13.027  26.872   4.543  0.2163 -0.0910  0.1160
    1DIPC   C4B24120  12.790  26.508   4.407  0.2036  0.1978  0.0023
    1DIPC   NC324121   4.229  20.932   1.760 -0.1603  0.1625 -0.1495
    1DIPC   PO424122   4.582  20.638   1.969 -0.1972  0.2461  0.1746
    1DIPC   GL124123   4.603  20.552   2.376  0.0624 -0.0042 -0.0876
    1DIPC   GL224124   4.600  20.261   2.494  0.2466  0.2115 -0.1074
    1DIPC   C1A24125   4.679  20.721   2.756  0.0387 -0.1724 -0.0885
    1DIPC   D2A24126   4.654  20.727   3.235 -0.1085  0.0973  0.0299
    1DIPC   D3A24127   4.231  20.952   3.344 -0.2069  0.0751 -0.2574
    1DIPC   C4A24128   4.384  20.880   3.785  0.1139 -0.1000  0.2786
    1DIPC   C1B24129   4.589  20.260   2.991 -0.0065  0.1061  0.0471
    1DIPC   D2B24130   4.229  20.445   3.222  0.1668 -0.0550 -0.1339
    1DIPC   D3B24131   4.307  20.355   3.685  0.0184  0.3868  0.0568
    1DIPC   C4B24132   4.758  20.458   3.821 -0.1967 -0.0686  0.1286
    1DIPC   NC324133  22.293   8.217   2.037 -0.1672  0.4329 -0.2052
    1DIPC   PO424134  21.971   8.170   2.291  0.0357 -0.0336  0.2491
    1DIPC   GL124135  21.766   8.095   2.747  0.1360  0.2236 -0.0194
    1DIPC   GL224136  21.974   7.901   3.054  0.3801  0.0785 -0.4319
    1DIPC   C1A24137  21.605   8.240   3.074  0.0369 -0.0965 -0.1670
    1DIPC   D2A24138  21.676   8.518   3.414  0.0265  0.1964  0.1673
    1DIPC   D3A24139  21.482   8.591   3.751 -0.3853 -0.1799 -0.1513
    1DIPC   C4A24140  21.269   8.324   3.777  0.1335 -0.0916 -0.0616
    1DIPC   C1B24141  22.069   8.192   3.438 -0.1353  0.0842 -0.2394
    1DIPC   D2B24142  22.205   8.369   3.815 -0.0918  0.0773  0.2694
    1DIPC   D3B24143  21.839   8.334   3.915  0.1722 -0.1067 -0.0246
    1DIPC   C4B24144  21.589   8.016   4.025 -0.1730 -0.2175  0.1171
    1DIPC   NC324145  25.391  19.361   2.163 -0.2411 -0.0704 -0.1468
    1DIPC   PO424146  25.234  18.912   2.408  0.1601  0.1495  0.0522
    1DIPC   GL124147  25.248  18.912   2.842  0.0857 -0.0398 -0.1810
    1DIPC   GL224148  25.281  19.190   2.965  0.3511 -0.0761  0.2867
    1DIPC   C1A24149  24.940  18.885   3.190  0.0804 -0.2877  0.0606
    1DIPC   D2A24150  24.779  18.675   3.530  0.1555 -0.0243  0.1413
    1DIPC   D3A24151  25.129  18.793   3.849  0.1496  0.1518 -0.0023
    1DIPC   C4A24152  25.097  18.612   4.226  0.2524 -0.0576 -0.1094
    1DIPC   C1B24153  25.618  19.198   3.250 -0.0092 -0.3010 -0.0772
    1DIPC   D2B24154  25.924  18.926   3.462  0.0596  0.1013 -0.1963
    1DIPC   D3B24155  25.637  18.905   3.806 -0.0848  0.1213  0.1135
    1DIPC   C4B24156  25.629  18.701   4.184  0.1749  0.3785  0.2160
    1DIPC   NC324157   2.731  29.308   3.053  0.3288 -0.0372  0.2090
    1DIPC   PO424158   3.090  28.997   3.134 -0.2250  0.0989 -0.1038
    1DIPC   GL124159   2.706  29.036   3.463 -0.0326  0.2514 -0.1482
    1DIPC   GL224160   2.922  28.965   3.791 -0.0122  0.4893  0.1029
    1DIPC   C1A24161   2.577  29.324   3.767  0.0588 -0.1095 -0.0227
    1DIPC   D2A24162   2.531  29.622   4.151  0.0881 -0.0780 -0.3112
    1DIPC   D3A24163   2.991  29.479   4.094  0.0286  0.0983  0.1767
    1DIPC   C4A24164   3.312  29.545   3.937  0.0587  0.1741  0.4507
    1DIPC   C1B24165   2.821  28.804   4.237  0.2445  0.0647  0.0468
    1DIPC   D2B24166   2.797  28.650   4.775 -0.3423 -0.1275  0.3281
    1DIPC   D3B24167   2.471  29.044   4.853  0.2781 -0.0485 -0.0280
    1DIPC   C4B24168   2.061  29.150   4.809 -0.4607 -0.0874 -0.1172
    1DIPC   NC324169   9.058   7.079   3.086 -0.0037 -0.1367  0.1559
    1DIPC   PO424170   9.204   7.500   3.273  0.0603  0.5294 -0.1817
    1DIPC   GL124171   9.339   7.544   3.643 -0.1403  0.0038 -0.2468
    1DIPC   GL224172   9.518   7.756   3.598 -0.1156 -0.0118 -0.2426
    1DIPC   C1A24173   9.134   7.531   4.007 -0.0369 -0.1002  0.1082
    1DIPC   D2A24174   8.748   7.649   4.298 -0.0361 -0.0464  0.3672
    1DIPC   D3A24175   8.329   7.620   4.212 -0.0177  0.0329  0.0002
    1DIPC   C4A24176   8.134   8.020   4.079 -0.3052 -0.3770  0.0949
    1DIPC   C1B24177   9.651   7.733   3.991 -0.0048 -0.0985 -0.0542
    1DIPC   D2B24178   9.548   7.784   4.483  0.1033 -0.2725  0.0008
    1DIPC   D3B24179   9.750   8.089   4.703 -0.0594 -0.1718 -0.1190
    1DIPC   C4B24180   9.729   8.180   5.057  0.0912  0.0192  0.3205
    1DIPC   NC324181  10.495  27.585   2.618  0.1328  0.1097 -0.1140
    1DIPC   PO424182  10.551  27.842   2.971 -0.2922  0.0633  0.2886
    1DIPC   GL124183  10.414  27.836   3.398 -0.2347  0.2263  0.2930
    1DIPC   GL224184  10.380  28.227   3.536  0.0642 -0.1950  0.0532
    1DIPC   C1A24185  10.186  27.638   3.814  0.0717 -0.0079 -0.1441
    1DIPC   D2A24186  10.090  27.328   4.015  0.0645 -0.1644  0.1483
    1DIPC   D3A24187  10.155  27.101   4.382 -0.0133 -0.0082  0.2853
    1DIPC   C4A24188   9.883  27.044   4.696 -0.0060 -0.2869  0.3043
    1DIPC   C1B24189  10.436  28.166   3.940 -0.4795 -0.1037 -0.3582
    1DIPC   D2B24190  10.467  28.269   4.331  0.1250 -0.2005  0.1173
    1DIPC   D3B24191  10.010  28.337   4.485  0.0690 -0.0987 -0.0628
    1DIPC   C4B24192   9.973  28.530   4.859 -0.1006  0.1664 -0.0306
    1DIPC   NC324193  17.816   5.651   2.611  0.1149  0.0545 -0.3185
    1DIPC   PO424194  17.696   6.037   2.602  0.4298 -0.0378 -0.0025
    1DIPC   GL124195  17.754   6.062   2.946 -0.1786 -0.1903 -0.3457
    1DIPC   GL224196  17.563   5.799   3.174 -0.4068  0.0078 -0.1957
    1DIPC   C1A24197  17.982   6.018   3.387  0.0688  0.1373  0.1049
    1DIPC   D2A24198  18.351   5.912   3.585  0.0657 -0.0202 -0.3179
    1DIPC   D3A24199  18.180   5.560   3.580 -0.1414 -0.0889 -0.1275
    1DIPC   C4A24200  17.668   5.487   3.552 -0.0787 -0.0105  0.2509
    1DIPC   C1B24201  17.460   5.935   3.493  0.1726  0.0326  0.3374
    1DIPC   D2B24202  17.455   5.740   3.947 -0.2054  0.0524  0.1591
    1DIPC   D3B24203  17.842   5.827   3.921 -0.2297  0.1232 -0.1643
    1DIPC   C4B24204  18.099   6.025   4.312 -0.3631 -0.0074  0.2964
    1DIPC   NC324205   2.245   3.953   2.928  0.0215  0.2325 -0.0298
    1DIPC   PO424206   2.215   4.033   3.301  0.0560  0.0033 -0.0105
    1DIPC   GL124207   2.020   3.974   3.653  0.0654  0.0796 -0.0883
    1DIPC   GL224208   1.850   3.678   3.715  0.0423  0.1460  0.3177
    1DIPC   C1A24209   1.901   3.944   4.178  0.0231  0.1272  0.0976
    1DIPC   D2A24210   1.657   4.141   4.565  0.3008  0.0022 -0.2323
    1DIPC   D3A24211   1.495   3.982   4.859 -0.2678 -0.1266  0.2846
    1DIPC   C4A24212   1.046   3.819   4.784  0.2721  0.0955 -0.0095
    1DIPC   C1B24213   1.744   3.490   4.069  0.0366  0.0159 -0.2430
    1DIPC   D2B24214   1.794   3.627   4.576  0.1199 -0.1356  0.1836
    1DIPC   D3B24215   1.436   3.489   4.792 -0.0073  0.1571  0.0641
    1DIPC   C4B24216   1.361   3.039   4.756 -0.0230 -0.0874 -0.1960
    1DIPC   NC324217  26.458   7.539   2.537 -0.1269  0.0311 -0.0426
    1DIPC   PO424218  26.179   7.440   2.876 -0.1703  0.0936 -0.0932
    1DIPC   GL124219  26.080   7.600   3.323 -0.0097 -0.1383  0.0068
    1DIPC   GL224220  25.799   7.883   3.404 -0.0593  0.0981 -0.0749
    1DIPC   C1A24221  25.928   7.380   3.691  0.2126  0.0209  0.2637
    1DIPC   D2A24222  26.245   7.288   3.928 -0.1716 -0.4058 -0.1243
    1DIPC   D3A24223  26.599   7.507   4.044  0.1730  0.0113  0.0712
    1DIPC   C4A24224  26.651   7.842   4.327 -0.1057  0.2094 -0.2034
    1DIPC   C1B24225  25.834   7.886   3.760 -0.0774 -0.0336  0.1680
    1DIPC   D2B24226  26.226   7.826   4.028 -0.0119  0.0041  0.0386
    1DIPC   D3B24227  25.958   7.575   4.208 -0.1729 -0.0055  0.0529
    1DIPC   C4B24228  25.802   7.509   4.671  0.0095  0.2853 -0.5668
    1DIPC   NC324229  18.616   0.594   3.290  0.0292  0.0802 -0.0993
    1DIPC   PO424230  18.796   0.195   3.384 -0.1738 -0.2119  0.1016
    1DIPC   GL124231  18.549   0.290   3.789 -0.3170 -0.0361  0.1511
    1DIPC   GL224232  18.376   0.586   3.936  0.0110 -0.3192 -0.1256
    1DIPC   C1A24233  18.340   0.095   3.951  0.0514 -0.5595  0.2860
    1DIPC   D2A24234  17.979   0.064   4.286  0.5142 -0.2091 -0.0192
    1DIPC   D3A24235  17.566   0.322   4.174  0.4329  0.3174  0.1901
    1DIPC   C4A24236  17.186   0.234   4.140  0.4683 -0.1447  0.0309
    1DIPC   C1B24237  18.396   0.416   4.351  0.2016  0.1967 -0.0274
    1DIPC   D2B24238  18.378   0.321   4.711 -0.0674  0.0385  0.0463
    1DIPC   D3B24239  17.911   0.339   4.755 -0.0956  0.2518 -0.0690
    1DIPC   C4B24240  17.851   0.514   5.166  0.1298 -0.0193 -0.0585
    1DIPC   NC324241   1.365  23.724   2.426 -0.0325 -0.1316 -0.0242
    1DIPC   PO424242   1.087  24.075   2.483  0.1686 -0.0688 -0.1903
    1DIPC   GL124243   1.102  23.909   2.864 -0.0169 -0.1691  0.0092
    1DIPC   GL224244   1.227  23.654   2.898 -0.3788 -0.1701  0.0345
    1DIPC   C1A24245   1.456  24.079   3.156  0.2616 -0.2039  0.1959
    1DIPC   D2A24246   1.641  24.381   3.290 -0.1157  0.0501  0.1435
    1DIPC   D3A24247   1.889  23.990   3.486  0.0496  0.3147  0.0649
    1DIPC   C4A24248   2.096  23.765   3.781  0.0508  0.2673  0.0445
    1DIPC   C1B24249   0.879  23.470   3.167  0.2395 -0.0322  0.0919
    1DIPC   D2B24250   0.663  23.048   3.264 -0.1053  0.0235  0.0310
    1DIPC   D3B24251   0.775  22.905   3.716  0.0746  0.0957 -0.2564
    1DIPC   C4B24252   1.115  22.618   3.812  0.0328  0.0876 -0.0338
    1DIPC   NC324253  24.534  23.837   3.031 -0.0021 -0.1862 -0.1853
    1DIPC   PO424254  24.338  24.195   3.142  0.0731  0.0107 -0.3264
    1DIPC   GL124255  24.082  24.201   3.408 -0.1662  0.0727 -0.0024
    1DIPC   GL224256  24.171  24.426   3.774 -0.1329 -0.0881  0.1473
    1DIPC   C1A24257  23.737  24.153   3.764 -0.2568 -0.1384  0.2259
    1DIPC   D2A24258  23.602  24.319   4.114  0.0034  0.2757 -0.1367
    1DIPC   D3A24259  23.152  24.239   4.109 -0.2453 -0.0497 -0.1778
    1DIPC   C4A24260  22.948  24.266   4.525  0.0115 -0.0919 -0.0957
    1DIPC   C1B24261  24.116  24.135   4.158 -0.0163 -0.2621 -0.2211
    1DIPC   D2B24262  23.831  24.134   4.516  0.1303  0.2234 -0.3667
    1DIPC   D3B24263  24.258  24.255   4.693  0.0497 -0.2153  0.1513
    1DIPC   C4B24264  24.569  24.240   4.366 -0.1057  0.2937 -0.0417
    1DIPC   NC324265   8.571   2.230   3.010  0.1379 -0.0448 -0.0733
    1DIPC   PO424266   8.659   2.268   3.445  0.0505  0.1146 -0.1613
    1DIPC   GL124267   8.788   2.214   3.883 -0.1042 -0.0450 -0.0443
    1DIPC   GL224268   9.110   2.192   3.998  0.1656 -0.0565 -0.1484
    1DIPC   C1A24269   8.656   1.961   4.254 -0.0375  0.2231  0.1977
    1DIPC   D2A24270   8.520   1.807   4.693  0.1643 -0.2724 -0.0657
    1DIPC   D3A24271   8.576   2.156   4.844 -0.1700  0.0894 -0.1423
    1DIPC   C4A24272   8.886   2.525   4.975 -0.2219  0.0924  0.0625
    1DIPC   C1B24273   9.245   2.198   4.341  0.3996  0.1900 -0.1611
    1DIPC   D2B24274   9.065   2.060   4.843 -0.0077  0.2863  0.1247
    1DIPC   D3B24275   8.904   1.717   5.144  0.0199 -0.1187  0.0760
    1DIPC   C4B24276   8.994   1.702   5.634 -0.0097  0.1709 -0.1062
    1DIPC   NC324277  23.525  25.109   2.915  0.0285 -0.0681 -0.0900
    1DIPC   PO424278  23.692  25.495   2.892  0.0979  0.0558  0.5339
    1DIPC   GL124279  23.665  25.488   3.371 -0.0538 -0.1638  0.1074
    1DIPC   GL224280  23.738  25.645   3.582 -0.0334  0.1333  0.1073
    1DIPC   C1A24281  23.398  25.316   3.640 -0.1076  0.0680  0.1641
    1DIPC   D2A24282  23.301  25.071   4.040  0.3317  0.0482  0.1503
    1DIPC   D3A24283  23.449  24.822   4.330 -0.3989 -0.0199 -0.1809
    1DIPC   C4A24284  23.446  24.940   4.769 -0.1423  0.0327 -0.1172
    1DIPC   C1B24285  23.773  25.326   4.001 -0.1755  0.0899 -0.0801
    1DIPC   D2B24286  23.869  25.037   4.384 -0.1764  0.3773  0.0936
    1DIPC   D3B24287  23.546  25.378   4.445  0.2832 -0.0627 -0.1341
    1DIPC   C4B24288  23.235  25.303   4.500 -0.0552 -0.0921 -0.0506
    1DIPC   NC324289  14.327   6.867   2.825  0.0670  0.0286  0.1801
    1DIPC   PO424290  14.115   6.612   3.086  0.3613 -0.1640  0.0147
    1DIPC   GL124291  14.181   6.514   3.652  0.0748 -0.0934 -0.1530
    1DIPC   GL224292  14.525   6.652   3.666  0.2760 -0.0890 -0.2246
    1DIPC   C1A24293  14.113   6.563   4.072 -0.0195 -0.0102  0.1676
    1DIPC   D2A24294  13.814   6.339   4.330 -0.2135  0.0738  0.0836
    1DIPC   D3A24295  14.081   6.521   4.612  0.0852  0.0742 -0.2169
    1DIPC   C4A24296  13.992   6.862   4.828 -0.0747  0.2389  0.2400
    1DIPC   C1B24297  14.584   6.342   3.931 -0.0814  0.1779 -0.0699
    1DIPC   D2B24298  14.628   6.264   4.326  0.2413  0.0129  0.0065
    1DIPC   D3B24299  14.968   6.040   4.022 -0.2852  0.0560  0.1848
    1DIPC   C4B24300  15.311   5.953   4.271  0.2373  0.0693 -0.0741
    1DIPC   NC324301  19.660  23.084   3.460  0.0564  0.0076  0.0503
    1DIPC   PO424302  19.952  23.445   3.533 -0.1695 -0.0416  0.1176
    1DIPC   GL124303  19.617  23.357   3.876 -0.1212  0.2159 -0.1495
    1DIPC   GL224304  19.345  23.123   3.857 -0.1282 -0.1390 -0.0220
    1DIPC   C1A24305  19.688  23.135   4.222 -0.0501 -0.0965  0.0629
    1DIPC   D2A24306  19.691  22.884   4.638  0.0443  0.3625 -0.1375
    1DIPC   D3A24307  19.722  22.543   4.736 -0.1340  0.1344  0.1807
    1DIPC   C4A24308  19.405  22.224   4.811  0.1851  0.2957 -0.1423
    1DIPC   C1B24309  19.158  23.035   4.235  0.0885 -0.3288 -0.0520
    1DIPC   D2B24310  18.949  23.142   4.600  0.1522 -0.0764 -0.2399
    1DIPC   D3B24311  18.686  22.902   4.569  0.3118  0.0076  0.0411
    1DIPC   C4B24312  18.474  22.753   4.862  0.2183  0.2369  0.0356
    1DIPC   NC324313  25.193  22.460   2.925  0.0444 -0.0137  0.2298
    1DIPC   PO424314  24.932  22.454   3.299 -0.1538 -0.0255 -0.0441
    1DIPC   GL124315  24.926  22.501   3.671 -0.3826  0.0836 -0.1545
    1DIPC   GL224316  25.156  22.260   3.822  0.1934  0.0678  0.1139
    1DIPC   C1A24317  24.706  22.578   4.014  0.0482 -0.2920  0.4964
    1DIPC   D2A24318  24.787  22.365   4.353 -0.0083  0.1240  0.2058
    1DIPC   D3A24319  24.855  22.177   4.654  0.1534 -0.0525  0.3583
    1DIPC   C4A24320  24.830  21.837   4.627  0.2611  0.0209  0.1065
    1DIPC   C1B24321  25.235  22.071   4.226  0.0032  0.0423 -0.1689
    1DIPC   D2B24322  25.615  21.945   4.405  0.2634 -0.3682 -0.2003
    1DIPC   D3B24323  25.550  22.009   4.751 -0.3767 -0.3852 -0.0529
    1DIPC   C4B24324  25.279  22.346   4.829 -0.0661 -0.0589  0.1506
    1DIPC   NC324325  25.223  15.416   2.488  0.3407  0.1260 -0.1059
    1DIPC   PO424326  24.767  15.567   2.531 -0.0590 -0.1296 -0.0652
    1DIPC   GL124327  24.453  15.512   2.843 -0.1657  0.1456 -0.0004
    1DIPC   GL224328  24.376  15.195   3.011 -0.4621 -0.1073  0.0496
    1DIPC   C1A24329  24.240  15.595   3.218  0.1523  0.0514 -0.0694
    1DIPC   D2A24330  24.177  15.921   3.533 -0.0436 -0.1029  0.0788
    1DIPC   D3A24331  23.866  15.594   3.660  0.0950 -0.0681 -0.0407
    1DIPC   C4A24332  23.542  15.737   3.612 -0.0143  0.0003  0.0685
    1DIPC   C1B24333  24.456  15.209   3.511 -0.0333  0.1408 -0.1023
    1DIPC   D2B24334  24.343  15.525   3.798  0.1268 -0.4059 -0.1798
    1DIPC   D3B24335  23.922  15.492   4.144 -0.0951 -0.1513  0.1950
    1DIPC   C4B24336  23.500  15.375   4.057  0.0901  0.1618  0.2611
    1DIPC   NC324337  15.533   1.906   3.130 -0.0954  0.1100  0.0143
    1DIPC   PO424338  15.452   1.409   3.403 -0.0424 -0.0338 -0.0756
    1DIPC   GL124339  15.632   1.384   3.816  0.3307 -0.3095 -0.1061
    1DIPC   GL224340  15.401   1.629   4.003  0.1342  0.0501 -0.0182
    1DIPC   C1A24341  16.057   1.457   4.037 -0.0572  0.0660 -0.0106
    1DIPC   D2A24342  16.133   1.411   4.414 -0.2600  0.1081 -0.1757
    1DIPC   D3A24343  16.543   1.181   4.326  0.3227 -0.2476 -0.1112
    1DIPC   C4A24344  16.776   0.869   4.693 -0.1048 -0.3996 -0.2292
    1DIPC   C1B24345  15.587   1.465   4.312 -0.0900  0.2536 -0.4098
    1DIPC   D2B24346  15.443   1.481   4.697 -0.1271  0.0579  0.0701
    1DIPC   D3B24347  15.424   1.829   5.000  0.0103 -0.2605 -0.2469
    1DIPC   C4B24348  15.223   2.203   4.942  0.0048  0.0225  0.2295
    1DIPC   NC324349  24.727  24.155   2.081  0.2121 -0.2786 -0.0849
    1DIPC   PO424350  25.051  24.158   2.383  0.4929 -0.1664  0.0248
    1DIPC   GL124351  24.930  24.396   2.859 -0.0552  0.0310  0.1598
    1DIPC   GL224352  24.706  24.462   3.091  0.2325  0.2767  0.1378
    1DIPC   C1A24353  25.229  24.436   3.184  0.2430 -0.0369  0.1197
    1DIPC   D2A24354  25.498  24.148   3.286  0.0156 -0.1669 -0.0798
    1DIPC   D3A24355  25.705  24.486   3.351 -0.0722 -0.0708 -0.2231
    1DIPC   C4A24356  25.549  24.860   3.398 -0.2266  0.1589  0.0025
    1DIPC   C1B24357  24.911  24.271   3.537  0.0911  0.1589  0.2405
    1DIPC   D2B24358  25.192  23.966   3.729  0.3123 -0.2930  0.3144
    1DIPC   D3B24359  25.626  24.195   3.751 -0.1229  0.1796 -0.2352
    1DIPC   C4B24360  25.881  24.234   4.117 -0.1307 -0.0873  0.1669
    1DIPC   NC324361  14.626   3.887   2.941 -0.2819 -0.0350  0.1525
    1DIPC   PO424362  14.939   3.744   3.052 -0.1146 -0.1128 -0.1840
    1DIPC   GL124363  15.297   3.841   3.357  0.0373 -0.0685  0.0217
    1DIPC   GL224364  15.682   3.696   3.270 -0.0842 -0.0671  0.1144
    1DIPC   C1A24365  15.228   3.719   3.774  0.1197  0.0419  0.1284
    1DIPC   D2A24366  15.195   3.723   4.106 -0.0222  0.0360 -0.3298
    1DIPC   D3A24367  15.400   4.111   4.115 -0.0914 -0.1897  0.0637
    1DIPC   C4A24368  15.327   4.474   3.818 -0.2563  0.1283  0.2323
    1DIPC   C1B24369  15.755   3.662   3.584 -0.5080  0.1277  0.1995
    1DIPC   D2B24370  15.972   3.483   3.890 -0.2478 -0.0614 -0.0769
    1DIPC   D3B24371  15.800   3.810   4.185  0.0084  0.1224 -0.0844
    1DIPC   C4B24372  15.614   3.764   4.554 -0.0314  0.0191  0.1261
    1DIPC   NC324373   1.251  19.972   2.201  0.4890  0.3908 -0.0115
    1DIPC   PO424374   0.971  19.685   2.498  0.1385 -0.3177  0.1849
    1DIPC   GL124375   0.922  19.541   2.927 -0.0929 -0.2032 -0.2815
    1DIPC   GL224376   0.579  19.429   3.105 -0.0290  0.2921  0.4377
    1DIPC   C1A24377   0.998  19.536   3.358 -0.1684  0.1325 -0.0531
    1DIPC   D2A24378   1.011  19.740   3.724  0.0214  0.0452  0.3672
    1DIPC   D3A24379   0.597  19.505   3.939  0.3158 -0.0650  0.1049
    1DIPC   C4A24380   0.288  19.442   3.564 -0.0325 -0.0506  0.2181
    1DIPC   C1B24381   0.456  18.989   3.406  0.0323  0.0251  0.1566
    1DIPC   D2B24382   0.721  18.616   3.503  0.2246 -0.0833 -0.3892
    1DIPC   D3B24383   0.916  18.516   3.903  0.3780 -0.1533 -0.3052
    1DIPC   C4B24384   1.105  18.689   4.261 -0.2888 -0.1926 -0.0533
    1DIPC   NC324385   5.215   8.629   3.162 -0.1425  0.0347  0.1440
    1DIPC   PO424386   5.195   9.096   3.203  0.2544 -0.1602  0.4223
    1DIPC   GL124387   5.029   8.956   3.554  0.1094  0.0419 -0.1824
    1DIPC   GL224388   4.859   9.055   3.811 -0.0062 -0.3976 -0.0621
    1DIPC   C1A24389   4.901   8.605   3.765 -0.1588  0.1615  0.0754
    1DIPC   D2A24390   4.622   8.489   4.135 -0.1289  0.1696  0.0400
    1DIPC   D3A24391   4.245   8.684   4.256  0.2442  0.1734 -0.1196
    1DIPC   C4A24392   4.107   8.820   4.709 -0.1499  0.4305 -0.1570
    1DIPC   C1B24393   4.624   8.950   4.118 -0.3083  0.1986 -0.0901
    1DIPC   D2B24394   4.608   8.804   4.602 -0.1315  0.3403  0.2918
    1DIPC   D3B24395   4.497   9.087   4.942  0.1347 -0.0978 -0.1201
    1DIPC   C4B24396   4.425   9.545   5.081 -0.0793  0.1439  0.1667
    1DIPC   NC324397  17.249  10.036   2.158  0.1423 -0.2471  0.0538
    1DIPC   PO424398  17.671   9.842   2.187  0.1574  0.2957  0.0066
    1DIPC   GL124399  17.878  10.130   2.490 -0.0465 -0.3703 -0.3312
    1DIPC   GL224400  17.998   9.899   2.607 -0.1477  0.0805  0.2180
    1DIPC   C1A24401  17.903  10.335   2.865  0.1774 -0.0064 -0.3541
    1DIPC   D2A24402  17.844  10.344   3.283 -0.0629  0.1803  0.0936
    1DIPC   D3A24403  17.534  10.293   3.619  0.1998 -0.2450  0.1453
    1DIPC   C4A24404  17.379  10.484   3.892  0.1371 -0.0393  0.1210
    1DIPC   C1B24405  17.780   9.784   2.983  0.0338 -0.3339  0.1692
    1DIPC   D2B24406  17.572   9.789   3.354 -0.0182 -0.1435  0.2146
    1DIPC   D3B24407  17.875   9.938   3.574 -0.2518  0.1491  0.0872
    1DIPC   C4B24408  18.009  10.357   3.755  0.0445 -0.0252 -0.0793
    1DIPC   NC324409  15.901   8.733   1.847 -0.1013  0.0423  0.2216
    1DIPC   PO424410  15.998   8.953   2.290 -0.3682  0.0295 -0.0192
    1DIPC   GL124411  16.006   9.113   2.745 -0.0162  0.0566 -0.0264
    1DIPC   GL224412  16.087   9.512   2.817  0.1023  0.0898  0.3542
    1DIPC   C1A24413  16.159   9.065   3.143 -0.0465 -0.0103 -0.1255
    1DIPC   D2A24414  16.580   8.948   3.403  0.1410 -0.1171 -0.1562
    1DIPC   D3A24415  16.911   9.304   3.237  0.1525  0.0933 -0.1757
    1DIPC   C4A24416  17.222   9.402   3.576  0.0047 -0.2049 -0.2982
    1DIPC   C1B24417  16.507   9.361   2.855  0.0554 -0.0011  0.1107
    1DIPC   D2B24418  16.906   9.189   2.628  0.0200 -0.0987 -0.1063
    1DIPC   D3B24419  17.307   9.404   2.762 -0.1054 -0.1754 -0.2289
    1DIPC   C4B24420  17.539   9.310   3.161  0.1082  0.1987  0.1186
    1DIPC   NC324421  29.531  19.083   2.201 -0.0888 -0.0101  0.2182
    1DIPC   PO424422  29.235  19.034   2.488 -0.0357  0.0997  0.0712
    1DIPC   GL124423  29.244  18.831   2.863 -0.0781 -0.2520 -0.2392
    1DIPC   GL224424  29.093  18.528   2.893 -0.0680  0.0306 -0.0972
    1DIPC   C1A24425  29.196  18.786   3.318  0.0785 -0.0698  0.0002
    1DIPC   D2A24426  29.250  18.662   3.659 -0.1966  0.0474 -0.0360
    1DIPC   D3A24427  29.436  18.987   3.756 -0.0396 -0.0113  0.3245
    1DIPC   C4A24428  29.875  18.915   3.666  0.1234  0.3943 -0.3496
    1DIPC   C1B24429  29.004  18.343   3.208 -0.1929  0.0831  0.0202
    1DIPC   D2B24430  28.734  18.079   3.558 -0.0344  0.1114 -0.1000
    1DIPC   D3B24431  28.812  18.402   3.826 -0.0593  0.1875  0.0379
    1DIPC   C4B24432  28.690  18.403   4.246  0.1466  0.0003 -0.0550
    1DIPC   NC324433  11.128   3.434   3.569  0.1593 -0.0490 -0.3187
    1DIPC   PO424434  10.893   3.618   3.899  0.3193 -0.1319  0.0605
    1DIPC   GL124435  10.837   3.682   4.306  0.0098 -0.0734  0.3858
    1DIPC   GL224436  10.576   3.824   4.336  0.1718  0.3210 -0.0417
    1DIPC   C1A24437  10.823   3.697   4.722  0.5716 -0.1250 -0.0896
    1DIPC   D2A24438  10.818   3.617   5.115 -0.0816  0.0536 -0.1597
    1DIPC   D3A24439  10.872   4.041   5.111  0.0340  0.0347  0.2023
    1DIPC   C4A24440  10.678   4.278   5.317  0.0503 -0.2397  0.2477
    1DIPC   C1B24441  10.650   4.218   4.608 -0.0408 -0.0363  0.1355
    1DIPC   D2B24442  10.489   4.513   4.920 -0.3772 -0.0584  0.3692
    1DIPC   D3B24443  10.849   4.653   4.912  0.1019 -0.3431 -0.0938
    1DIPC   C4B24444  11.122   4.473   5.212 -0.1002 -0.3771  0.0460
    1DIPC   NC324445   5.015  20.297   2.116 -0.1897  0.1428  0.0291
    1DIPC   PO424446   5.392  20.390   2.132 -0.0808  0.1118  0.3057
    1DIPC   GL124447   5.312  20.543   2.474 -0.0022  0.2797 -0.3580
    1DIPC   GL224448   5.091  20.442   2.585  0.2388 -0.2389  0.3924
    1DIPC   C1A24449   5.253  20.886   2.853  0.0460 -0.0165 -0.5260
    1DIPC   D2A24450   5.128  21.063   3.237 -0.2030  0.1119  0.0508
    1DIPC   D3A24451   5.317  21.173   3.693 -0.1958 -0.0299 -0.1029
    1DIPC   C4A24452   5.788  21.109   3.780  0.1625 -0.0826  0.3686
    1DIPC   C1B24453   5.027  20.426   3.007 -0.1392 -0.0688 -0.0441
    1DIPC   D2B24454   5.209  20.621   3.400 -0.1702  0.0717 -0.1640
    1DIPC   D3B24455   4.860  20.895   3.640  0.0127  0.2152 -0.2063
    1DIPC   C4B24456   4.885  21.323   3.862  0.1109  0.1730  0.0930
    1DIPC   NC324457   0.979  25.608   2.404  0.5357  0.0193  0.0574
    1DIPC   PO424458   1.199  25.234   2.376  0.0220 -0.1238 -0.0034
    1DIPC   GL124459   1.145  25.256   2.827 -0.0105  0.1380  0.1370
    1DIPC   GL224460   1.007  25.039   2.899 -0.0048  0.0195  0.1328
    1DIPC   C1A24461   1.377  25.263   3.266 -0.3217 -0.0912 -0.2285
    1DIPC   D2A24462   1.492  25.332   3.571 -0.0554 -0.2140  0.1177
    1DIPC   D3A24463   1.636  25.683   3.437 -0.2119 -0.0072  0.1744
    1DIPC   C4A24464   1.578  25.752   3.088 -0.0765 -0.1623  0.1623
    1DIPC   C1B24465   0.917  24.920   3.331 -0.1586 -0.3756 -0.0661
    1DIPC   D2B24466   1.183  24.874   3.728  0.4465 -0.1310 -0.0013
    1DIPC   D3B24467   1.553  25.038   4.029  0.3866 -0.0037  0.1583
    1DIPC   C4B24468   1.911  24.785   4.038  0.0664  0.2395 -0.0224
    1DIPC   NC324469  27.373  19.636   2.820 -0.0374 -0.2019 -0.0392
    1DIPC   PO424470  27.752  19.753   3.029 -0.0107 -0.2862 -0.2815
    1DIPC   GL124471  27.742  19.700   3.450  0.0023  0.0960 -0.2080
    1DIPC   GL224472  27.891  19.822   3.576  0.1017  0.0670  0.2632
    1DIPC   C1A24473  27.654  19.514   3.856  0.0654  0.1715 -0.0797
    1DIPC   D2A24474  27.407  19.346   4.179 -0.0116  0.0433  0.0389
    1DIPC   D3A24475  27.063  19.410   4.218  0.2434  0.0750 -0.3789
    1DIPC   C4A24476  26.855  19.080   4.540 -0.2367 -0.1309  0.0422
    1DIPC   C1B24477  27.938  19.920   3.922 -0.2206  0.2038  0.2751
    1DIPC   D2B24478  28.119  19.890   4.357 -0.0211 -0.0948  0.2051
    1DIPC   D3B24479  28.092  19.465   4.200 -0.5127  0.1529  0.0985
    1DIPC   C4B24480  28.484  19.306   4.015  0.1547 -0.2803 -0.0968
    1DIPC   NC324481  18.990   8.203   2.108  0.2688  0.1614 -0.0572
    1DIPC   PO424482  19.388   8.066   2.309  0.0614  0.1775 -0.1826
    1DIPC   GL124483  19.155   7.830   2.434 -0.2392  0.2538 -0.0805
    1DIPC   GL224484  18.833   7.733   2.280 -0.1455 -0.2063  0.2419
    1DIPC   C1A24485  19.019   7.723   2.828 -0.1794  0.1182  0.0512
    1DIPC   D2A24486  18.736   7.332   2.974 -0.5940  0.1056 -0.0766
    1DIPC   D3A24487  18.944   7.617   3.299  0.1376 -0.1992 -0.0257
    1DIPC   C4A24488  19.271   7.949   3.262  0.1731 -0.2329 -0.3144
    1DIPC   C1B24489  18.557   7.727   2.647 -0.0763  0.0210  0.1576
    1DIPC   D2B24490  18.581   7.887   3.100 -0.2120  0.3427 -0.1968
    1DIPC   D3B24491  18.603   8.324   3.267  0.0322  0.0321  0.0662
    1DIPC   C4B24492  18.588   8.524   3.621 -0.0639  0.0011  0.1012
    1DIPC   NC324493  21.951   1.245   2.915 -0.3296  0.4357 -0.1471
    1DIPC   PO424494  21.814   1.261   3.324 -0.0722 -0.0381  0.0770
    1DIPC   GL124495  21.747   1.107   3.666 -0.0677  0.0911  0.1569
    1DIPC   GL224496  22.030   1.119   3.738 -0.1151 -0.0207  0.0835
    1DIPC   C1A24497  21.637   1.087   4.043  0.1527  0.0736 -0.1792
    1DIPC   D2A24498  21.776   1.104   4.446  0.0808 -0.1598  0.2322
    1DIPC   D3A24499  21.544   1.265   4.864 -0.0270  0.1286  0.0648
    1DIPC   C4A24500  21.164   1.239   4.966 -0.1233 -0.0720 -0.0941
    1DIPC   C1B24501  22.088   0.875   3.981  0.1223 -0.2797  0.3972
    1DIPC   D2B24502  22.368   0.757   4.201 -0.0916 -0.1877  0.0232
    1DIPC   D3B24503  22.254   0.870   4.623  0.3339  0.3581  0.3445
    1DIPC   C4B24504  21.869   0.927   4.868 -0.2950  0.0398  0.4249
    1DIPC   NC324505  27.698  14.551   2.191 -0.1672 -0.1467  0.0834
    1DIPC   PO424506  27.396  14.789   2.335  0.1564  0.0922 -0.2580
    1DIPC   GL124507  27.119  14.790   2.639  0.0693  0.0345 -0.0585
    1DIPC   GL224508  27.455  14.871   2.867  0.1507  0.1492 -0.0079
    1DIPC   C1A24509  27.068  14.745   3.113  0.2229  0.0984 -0.0760
    1DIPC   D2A24510  27.080  14.975   3.475 -0.0886 -0.0850 -0.2702
    1DIPC   D3A24511  27.301  14.779   3.804 -0.0140  0.3214  0.0068
    1DIPC   C4A24512  27.408  14.558   3.479  0.2781  0.0695  0.1175
    1DIPC   C1B24513  27.557  15.039   3.308  0.3058 -0.1256  0.0434
    1DIPC   D2B24514  27.820  14.947   3.639  0.1334  0.0391 -0.1280
    1DIPC   D3B24515  27.739  15.038   4.078 -0.0684 -0.0311 -0.2277
    1DIPC   C4B24516  27.579  14.826   4.461 -0.2362  0.1907  0.2910
    1DIPC   NC324517   2.823   3.279   3.431 -0.2420 -0.0550  0.1604
    1DIPC   PO424518   3.269   3.194   3.372  0.1843 -0.4107 -0.0166
    1DIPC   GL124519   3.610   3.087   3.701 -0.0114 -0.0728  0.2498
    1DIPC   GL224520   3.458   3.192   4.046 -0.2941  0.0624  0.1185
    1DIPC   C1A24521   3.904   2.950   4.042  0.0720 -0.0140 -0.0574
    1DIPC   D2A24522   4.142   2.625   4.187 -0.2189  0.0287 -0.3460
    1DIPC   D3A24523   4.234   2.712   4.664  0.0028  0.3126 -0.1401
    1DIPC   C4A24524   3.938   2.643   5.014  0.0289 -0.0343  0.0441
    1DIPC   C1B24525   3.169   3.436   4.173  0.1592 -0.0406  0.1697
    1DIPC   D2B24526   2.893   3.596   4.524  0.0572  0.0607  0.0634
    1DIPC   D3B24527   2.348   3.517   4.373  0.0912  0.2741  0.2419
    1DIPC   C4B24528   2.195   3.300   4.052  0.2542  0.0530 -0.3738
    1DIPC   NC324529  27.340  27.223   2.340 -0.1010  0.1859  0.1862
    1DIPC   PO424530  27.134  27.452   2.713 -0.1210  0.1872  0.1890
    1DIPC   GL124531  26.970  27.574   3.123 -0.2033  0.2620 -0.2419
    1DIPC   GL224532  26.935  27.897   3.156 -0.1393 -0.0782 -0.1063
    1DIPC   C1A24533  26.655  27.513   3.378  0.0991  0.1656 -0.1477
    1DIPC   D2A24534  26.615  27.374   3.765  0.0095 -0.2348  0.2638
    1DIPC   D3A24535  26.640  27.710   3.857 -0.2748 -0.2048 -0.1661
    1DIPC   C4A24536  26.607  27.816   4.175  0.2338 -0.2219 -0.1012
    1DIPC   C1B24537  27.027  27.984   3.524 -0.1346 -0.2039 -0.3913
    1DIPC   D2B24538  27.255  28.216   3.851  0.4051 -0.0339 -0.1722
    1DIPC   D3B24539  27.092  27.938   4.101  0.2334  0.4819  0.3547
    1DIPC   C4B24540  27.348  27.900   4.451 -0.1173 -0.2978 -0.3158
    1DIPC   NC324541  21.616   1.684   3.536  0.1692  0.1714  0.1422
    1DIPC   PO424542  21.691   2.115   3.270  0.2090  0.0968 -0.0148
    1DIPC   GL124543  21.966   2.254   3.591  0.1418 -0.0623  0.0053
    1DIPC   GL224544  21.912   1.960   3.824  0.0089 -0.1553 -0.1378
    1DIPC   C1A24545  21.965   2.434   4.012 -0.0814  0.2330 -0.0825
    1DIPC   D2A24546  22.018   2.143   4.363  0.0939 -0.1989  0.0350
    1DIPC   D3A24547  21.759   2.087   4.674  0.1297  0.2719  0.1398
    1DIPC   C4A24548  21.342   2.034   4.647 -0.2220  0.6151 -0.0194
    1DIPC   C1B24549  21.889   1.540   4.049 -0.4185 -0.2023  0.1762
    1DIPC   D2B24550  21.861   1.620   4.506 -0.3709  0.2381 -0.0806
    1DIPC   D3B24551  22.191   1.894   4.812 -0.1326  0.2743 -0.0025
    1DIPC   C4B24552  22.323   1.609   5.157  0.1382  0.0882 -0.0053
    1DIPC   NC324553  17.394   9.025   2.374  0.1092 -0.4967  0.1076
    1DIPC   PO424554  17.575   8.583   2.474  0.0421  0.0779 -0.1737
    1DIPC   GL124555  17.888   8.611   2.863 -0.0306  0.0082  0.0657
    1DIPC   GL224556  17.762   8.902   2.913  0.3802  0.1858 -0.0999
    1DIPC   C1A24557  18.188   8.626   3.317 -0.0225 -0.1755  0.1197
    1DIPC   D2A24558  17.991   8.456   3.613 -0.0460 -0.0331  0.0499
    1DIPC   D3A24559  18.097   8.780   3.835 -0.0113  0.0069  0.0067
    1DIPC   C4A24560  17.718   8.953   4.126  0.2588  0.1359  0.0128
    1DIPC   C1B24561  17.644   8.786   3.328  0.1271 -0.0503  0.0052
    1DIPC   D2B24562  17.478   8.943   3.703  0.0690 -0.1226  0.2168
    1DIPC   D3B24563  17.686   9.322   3.765 -0.0341 -0.1143 -0.0626
    1DIPC   C4B24564  17.994   9.376   3.769 -0.1811 -0.0381  0.0649
    1DIPC   NC324565  22.470  10.989   2.159 -0.2701 -0.1089 -0.2752
    1DIPC   PO424566  22.079  10.935   2.269 -0.4398  0.0825  0.1722
    1DIPC   GL124567  22.063  10.799   2.752 -0.2659 -0.0254  0.1280
    1DIPC   GL224568  22.153  10.587   2.874 -0.0574  0.0362 -0.0579
    1DIPC   C1A24569  22.330  11.038   3.076  0.1742  0.0925 -0.0756
    1DIPC   D2A24570  22.395  11.416   3.051  0.2865  0.0590 -0.5636
    1DIPC   D3A24571  22.349  11.509   3.478  0.4408  0.0181  0.1384
    1DIPC   C4A24572  22.292  11.265   3.822 -0.1526  0.1458 -0.0743
    1DIPC   C1B24573  21.936  10.757   3.209 -0.1717 -0.0483 -0.2439
    1DIPC   D2B24574  21.894  10.568   3.688  0.3227 -0.1786 -0.1136
    1DIPC   D3B24575  22.261  10.674   4.019 -0.2739 -0.2566 -0.1153
    1DIPC   C4B24576  22.284  11.110   4.279  0.1700  0.3985 -0.3944
    1DIPC   NC324577  29.707  29.707   2.843 -0.1059 -0.3014 -0.0109
    1DIPC   PO424578  29.387  29.998   2.869  0.0644 -0.0555  0.2298
    1DIPC   GL124579  29.454  29.888   3.337 -0.2012 -0.1399 -0.3106
    1DIPC   GL224580  29.320  30.145   3.527 -0.1775 -0.2994  0.1497
    1DIPC   C1A24581  29.474  29.687   3.688  0.1321  0.1371  0.0583
    1DIPC   D2A24582  29.454  29.877   4.163 -0.2017  0.0863 -0.1799
    1DIPC   D3A24583  29.107  29.524   4.190  0.4014 -0.0873 -0.3680
    1DIPC   C4A24584  29.125  29.199   3.945 -0.1488  0.0721 -0.0650
    1DIPC   C1B24585  29.191  30.267   4.001 -0.0626  0.2159  0.0031
    1DIPC   D2B24586  29.258  30.313   4.454  0.2113 -0.0023 -0.0297
    1DIPC   D3B24587  28.996  30.008   4.503  0.1121  0.0816 -0.1469
    1DIPC   C4B24588  29.002  29.847   4.891  0.1421 -0.2281 -0.1588
    1DIPC   NC324589   2.080  18.956   2.570 -0.1060  0.1593 -0.2353
    1DIPC   PO424590   2.465  18.879   2.414 -0.1600 -0.2716 -0.0287
    1DIPC   GL124591   2.447  18.849   2.869 -0.1819 -0.3524 -0.1274
    1DIPC   GL224592   2.355  19.097   3.059 -0.2120  0.1126  0.1583
    1DIPC   C1A24593   2.580  18.668   3.166 -0.0970 -0.0402  0.2484
    1DIPC   D2A24594   2.812  18.478   3.453 -0.0377  0.2995  0.0968
    1DIPC   D3A24595   2.839  18.877   3.768 -0.1406  0.0644  0.0016
    1DIPC   C4A24596   2.543  18.974   4.091  0.3168 -0.1782  0.2756
    1DIPC   C1B24597   2.453  19.036   3.456  0.1306 -0.1439  0.0743
    1DIPC   D2B24598   2.319  19.231   3.779  0.1882 -0.0228 -0.0097
    1DIPC   D3B24599   1.973  19.085   4.017 -0.1617 -0.3710  0.0729
    1DIPC   C4B24600   1.817  19.044   4.415 -0.1957  0.1775  0.1497
    1DIPC   NC324601  23.730  20.802   2.555  0.1172  0.1111 -0.1683
    1DIPC   PO424602  24.154  20.581   2.577  0.0958 -0.1330  0.3159
    1DIPC   GL124603  24.314  20.507   3.032  0.1410 -0.1131  0.2371
    1DIPC   GL224604  24.314  20.133   3.032 -0.1931  0.2062 -0.2688
    1DIPC   C1A24605  24.731  20.437   3.249  0.0368  0.1865 -0.2606
    1DIPC   D2A24606  25.022  20.440   3.606  0.3545 -0.1938  0.1910
    1DIPC   D3A24607  25.411  20.180   3.754  0.1263  0.1920 -0.1091
    1DIPC   C4A24608  25.697  20.491   4.064 -0.3132 -0.2373 -0.2765
    1DIPC   C1B24609  24.267  20.296   3.458 -0.1109  0.0212 -0.1798
    1DIPC   D2B24610  24.439  20.540   3.811 -0.2449  0.0524  0.0973
    1DIPC   D3B24611  24.287  20.653   4.224  0.1479 -0.2024 -0.1133
    1DIPC   C4B24612  24.100  20.299   4.433  0.1551 -0.2666  0.1276
    1DIPC   NC324613   1.962  26.722   2.256  0.3440  0.1304  0.2449
    1DIPC   PO424614   1.731  26.640   2.626 -0.1174 -0.0115  0.0100
    1DIPC   GL124615   1.490  26.642   3.068  0.1194 -0.2868  0.0068
    1DIPC   GL224616   1.216  26.645   3.011  0.0990 -0.0915 -0.2454
    1DIPC   C1A24617   1.497  26.684   3.458  0.3074 -0.0414  0.0918
    1DIPC   D2A24618   1.654  26.550   3.944  0.0684  0.0212  0.2852
    1DIPC   D3A24619   1.971  26.583   4.074  0.0264  0.0845  0.2073
    1DIPC   C4A24620   2.150  26.224   4.160 -0.0505  0.1150  0.2337
    1DIPC   C1B24621   0.878  26.473   3.296  0.2470 -0.1487  0.1496
    1DIPC   D2B24622   0.823  26.017   3.526  0.1341 -0.1535 -0.0700
    1DIPC   D3B24623   0.687  26.077   3.934  0.2000  0.1811 -0.1973
    1DIPC   C4B24624   0.964  25.968   4.258 -0.2877  0.1705 -0.0676
    1DIPC   NC324625   2.944   6.180   3.107 -0.0021  0.2673 -0.3907
    1DIPC   PO424626   2.957   6.611   3.053  0.1667 -0.1640  0.1479
    1DIPC   GL124627   2.868   6.644   3.538  0.1130 -0.0650  0.1596
    1DIPC   GL224628   2.574   6.738   3.626 -0.0548 -0.2120 -0.0188
    1DIPC   C1A24629   2.974   6.687   3.921  0.2048  0.1092 -0.2928
    1DIPC   D2A24630   2.882   6.583   4.319  0.2507 -0.3142 -0.2023
    1DIPC   D3A24631   2.792   6.793   4.662  0.2955 -0.1748  0.0154
    1DIPC   C4A24632   3.201   6.888   4.839  0.1728 -0.0475 -0.1219
    1DIPC   C1B24633   2.468   6.395   3.916  0.0652  0.0005 -0.2780
    1DIPC   D2B24634   2.463   6.318   4.394 -0.2679 -0.0063 -0.1373
    1DIPC   D3B24635   2.757   6.332   4.738  0.2565  0.1694 -0.0346
    1DIPC   C4B24636   2.826   6.085   5.086 -0.3455 -0.0337  0.1504
    1DIPC   NC324637  11.275  22.881   2.192  0.2302 -0.0147  0.0502
    1DIPC   PO424638  11.350  22.736   2.548 -0.0371 -0.0457 -0.2492
    1DIPC   GL124639  11.604  22.945   2.881  0.1164  0.0305 -0.1791
    1DIPC   GL224640  11.641  23.395   2.909  0.2863  0.1816  0.0759
    1DIPC   C1A24641  11.707  23.102   3.280  0.0795 -0.3221  0.0753
    1DIPC   D2A24642  11.932  23.517   3.426  0.2866  0.0768 -0.0261
    1DIPC   D3A24643  11.986  23.537   3.784 -0.0789 -0.0052 -0.0463
    1DIPC   C4A24644  12.210  23.965   3.983  0.2013 -0.0969  0.0112
    1DIPC   C1B24645  11.504  23.697   3.289  0.1241  0.2199 -0.3112
    1DIPC   D2B24646  11.370  23.822   3.635  0.2303 -0.2096 -0.2485
    1DIPC   D3B24647  11.088  23.552   3.710 -0.0175 -0.4828  0.2136
    1DIPC   C4B24648  10.709  23.548   3.884 -0.2216  0.0205  0.0764
    1DIPC   NC324649  13.902  27.886   3.121 -0.0451 -0.0190 -0.1369
    1DIPC   PO424650  14.287  27.788   3.286 -0.3932  0.0217  0.2481
    1DIPC   GL124651  14.394  27.739   3.697 -0.3193 -0.2383  0.1075
    1DIPC   GL224652  14.171  27.431   3.831  0.5020  0.0400  0.1663
    1DIPC   C1A24653  14.669  27.510   3.897 -0.1288  0.3812 -0.0613
    1DIPC   D2A24654  14.704  27.509   4.386 -0.2542 -0.1693 -0.1570
    1DIPC   D3A24655  15.104  27.395   4.509 -0.1533 -0.1161  0.0591
    1DIPC   C4A24656  15.354  27.478   4.858  0.1993  0.1273 -0.0811
    1DIPC   C1B24657  13.853  27.251   4.152 -0.0911  0.1216 -0.0782
    1DIPC   D2B24658  13.911  26.988   4.536 -0.5552 -0.2285  0.1356
    1DIPC   D3B24659  13.710  26.564   4.740 -0.1376 -0.3168 -0.1292
    1DIPC   C4B24660  13.469  26.228   4.441  0.0815 -0.1066  0.0984
    1DIPC   NC324661  18.089  27.572   2.881  0.2078  0.0063  0.4616
    1DIPC   PO424662  17.876  27.482   3.314 -0.1494 -0.0498  0.0490
    1DIPC   GL124663  17.857  27.280   3.781  0.0417  0.3075 -0.0575
    1DIPC   GL224664  17.745  27.551   3.971  0.2935  0.2098  0.1281
    1DIPC   C1A24665  18.051  27.139   4.102  0.1056 -0.0825  0.2777
    1DIPC   D2A24666  18.151  27.289   4.545  0.0693  0.0684 -0.0816
    1DIPC   D3A24667  17.829  27.347   4.829  0.0319 -0.2871 -0.3422
    1DIPC   C4A24668  17.569  27.049   5.086  0.0187 -0.0036  0.1727
    1DIPC   C1B24669  17.746  27.520   4.367 -0.0555 -0.2722 -0.1607
    1DIPC   D2B24670  17.743  27.833   4.802 -0.2611  0.4483  0.0654
    1DIPC   D3B24671  17.383  27.609   4.787 -0.1018 -0.2099  0.3778
    1DIPC   C4B24672  17.383  27.194   4.503  0.1062 -0.3114 -0.2314
    1DIPC   NC324673  12.656  24.291   1.597 -0.0484  0.1313 -0.3200
    1DIPC   PO424674  12.670  24.109   2.102  0.2824 -0.1511 -0.0669
    1DIPC   GL124675  12.224  24.232   2.164 -0.1567 -0.1367  0.1884
    1DIPC   GL224676  12.230  24.439   2.377  0.1695 -0.1456 -0.2428
    1DIPC   C1A24677  11.807  24.260   2.290 -0.0130  0.3843  0.2296
    1DIPC   D2A24678  11.406  24.432   2.261 -0.1018  0.2809 -0.0784
    1DIPC   D3A24679  11.485  24.436   2.721  0.3176  0.2936  0.3342
    1DIPC   C4A24680  11.559  24.718   2.954  0.2031 -0.1102  0.1058
    1DIPC   C1B24681  12.008  24.343   2.830  0.0277 -0.2071  0.0562
    1DIPC   D2B24682  11.698  24.129   3.098  0.1797  0.3480  0.1588
    1DIPC   D3B24683  11.607  24.457   3.436  0.0336 -0.3617 -0.0331
    1DIPC   C4B24684  11.442  24.372   3.735  0.1162 -0.2206  0.0721
    1DIPC   NC324685   7.291  13.496   2.765  0.1459  0.2951  0.0809
    1DIPC   PO424686   7.609  13.698   3.012  0.0531 -0.1721 -0.1968
    1DIPC   GL124687   7.584  14.033   3.321  0.0020 -0.0686 -0.0697
    1DIPC   GL224688   7.445  14.228   3.146  0.0650 -0.3845 -0.1117
    1DIPC   C1A24689   7.347  13.992   3.640  0.1556 -0.0450  0.0976
    1DIPC   D2A24690   7.103  13.639   3.916 -0.0800 -0.0704 -0.2374
    1DIPC   D3A24691   7.336  13.407   4.249  0.2216  0.2843 -0.0566
    1DIPC   C4A24692   7.578  13.506   4.550 -0.1087  0.0463 -0.1022
    1DIPC   C1B24693   7.157  14.460   3.470 -0.0288 -0.0484  0.0915
    1DIPC   D2B24694   7.015  14.647   3.854  0.0092 -0.0349  0.2334
    1DIPC   D3B24695   7.318  14.588   4.248 -0.1277 -0.0355 -0.1997
    1DIPC   C4B24696   7.251  14.962   4.613  0.1522  0.1291  0.2311
    1DIPC   NC324697  13.839  29.585   3.446 -0.1190  0.2260  0.2501
    1DIPC   PO424698  14.252  29.345   3.453  0.2624  0.1315  0.1731
    1DIPC   GL124699  14.371  29.026   3.798  0.2589 -0.0619  0.0669
    1DIPC   GL224700  14.199  28.752   3.739 -0.0231  0.0621 -0.0655
    1DIPC   C1A24701  14.598  28.879   4.142 -0.1890 -0.0546  0.0381
    1DIPC   D2A24702  14.435  28.951   4.533 -0.0885 -0.2633 -0.1945
    1DIPC   D3A24703  14.652  28.935   5.006 -0.0758 -0.2778  0.2285
    1DIPC   C4A24704  15.062  28.947   5.161 -0.1465 -0.1132  0.1464
    1DIPC   C1B24705  14.090  28.762   4.219  0.3971  0.0463 -0.2172
    1DIPC   D2B24706  13.942  28.849   4.650 -0.2191 -0.1017 -0.1201
    1DIPC   D3B24707  13.653  28.627   4.782 -0.4050  0.0923 -0.1737
    1DIPC   C4B24708  13.420  28.194   4.902 -0.2835 -0.0464  0.0660
    1DIPC   NC324709   2.719  26.177   1.946 -0.0162 -0.1942 -0.0937
    1DIPC   PO424710   2.666  26.220   2.373  0.0976 -0.0075  0.2387
    1DIPC   GL124711   2.619  26.185   2.810  0.0406 -0.2630  0.1998
    1DIPC   GL224712   2.818  26.345   2.964 -0.0793 -0.1855  0.2777
    1DIPC   C1A24713   2.574  26.011   3.189  0.2322 -0.4319 -0.0328
    1DIPC   D2A24714   2.312  25.901   3.493 -0.4740  0.1263  0.0390
    1DIPC   D3A24715   2.142  25.525   3.380 -0.0218 -0.0382 -0.0029
    1DIPC   C4A24716   2.278  25.105   3.366 -0.2302  0.2544  0.1582
    1DIPC   C1B24717   3.048  26.143   3.297 -0.1559 -0.2436 -0.2711
    1DIPC   D2B24718   3.291  25.950   3.669  0.0381 -0.1835  0.0825
    1DIPC   D3B24719   3.121  25.826   4.026 -0.2605  0.2329  0.0461
    1DIPC   C4B24720   3.265  25.736   4.393 -0.4301 -0.2681 -0.0465
    1DIPC   NC324721   1.125  24.770   2.555  0.0185  0.1631 -0.1858
    1DIPC   PO424722   0.820  24.462   2.519  0.1163  0.1594  0.0210
    1DIPC   GL124723   0.742  24.318   2.804  0.0424  0.0382  0.1275
    1DIPC   GL224724   0.666  24.035   3.047 -0.0081  0.2407  0.4006
    1DIPC   C1A24725   0.984  24.414   3.189 -0.4710 -0.2798 -0.0068
    1DIPC   D2A24726   1.217  24.344   3.633 -0.2757 -0.0185 -0.2002
    1DIPC   D3A24727   1.411  24.505   4.030  0.1159 -0.1509 -0.1457
    1DIPC   C4A24728   1.097  24.757   4.292 -0.1098 -0.2172 -0.0867
    1DIPC   C1B24729   0.889  23.914   3.359  0.0802  0.0604 -0.1807
    1DIPC   D2B24730   1.014  23.889   3.798 -0.1687 -0.0624 -0.0334
    1DIPC   D3B24731   1.375  23.516   3.889  0.2192 -0.1087  0.0646
    1DIPC   C4B24732   1.744  23.356   3.668  0.1750  0.0508  0.0040
    1DIPC   NC324733  15.309  24.135   2.859  0.1511 -0.0031 -0.0781
    1DIPC   PO424734  14.862  23.922   2.989 -0.1537  0.0059 -0.0205
    1DIPC   GL124735  14.665  23.666   3.250 -0.0586  0.0245  0.1100
    1DIPC   GL224736  14.607  23.366   3.144  0.1179  0.2001  0.3462
    1DIPC   C1A24737  14.590  23.484   3.645  0.3219  0.0842 -0.2708
    1DIPC   D2A24738  14.395  23.567   4.047 -0.0859  0.1530  0.1145
    1DIPC   D3A24739  14.821  23.760   4.040 -0.3041  0.0463 -0.0174
    1DIPC   C4A24740  15.185  23.726   3.864 -0.3503 -0.1666  0.2858
    1DIPC   C1B24741  14.215  23.300   3.377  0.1656  0.2893  0.0295
    1DIPC   D2B24742  13.779  23.388   3.620 -0.0077  0.1103  0.0355
    1DIPC   D3B24743  13.548  23.610   3.378 -0.2038 -0.2216  0.1247
    1DIPC   C4B24744  13.329  23.558   2.997 -0.2331 -0.0692 -0.1344
    1DIPC   NC324745  19.276  26.294   3.427  0.0016  0.1888 -0.1268
    1DIPC   PO424746  19.624  26.101   3.137  0.1530 -0.4459  0.1207
    1DIPC   GL124747  19.556  25.936   3.548 -0.0148 -0.0802 -0.2324
    1DIPC   GL224748  19.633  26.099   3.855 -0.1330 -0.2347 -0.2496
    1DIPC   C1A24749  19.161  25.913   3.895 -0.0610  0.2142  0.0761
    1DIPC   D2A24750  18.778  26.156   4.152  0.0746  0.1995  0.0636
    1DIPC   D3A24751  19.029  25.901   4.406  0.4608  0.1590  0.0214
    1DIPC   C4A24752  18.898  25.903   4.786  0.1176 -0.2976  0.1701
    1DIPC   C1B24753  19.590  25.839   4.239 -0.2294  0.1904  0.0013
    1DIPC   D2B24754  19.833  25.469   4.351  0.2680 -0.0435  0.0728
    1DIPC   D3B24755  19.858  25.227   4.738  0.0777  0.0711 -0.0225
    1DIPC   C4B24756  19.686  25.438   5.036  0.2333  0.0118 -0.1229
    1DIPC   NC324757  27.651  25.028   2.917 -0.2582  0.1117 -0.0543
    1DIPC   PO424758  27.372  24.683   3.017 -0.3234  0.2879  0.1129
    1DIPC   GL124759  27.494  24.942   3.390  0.0257 -0.1451  0.1273
    1DIPC   GL224760  27.275  24.919   3.667 -0.0501 -0.1001  0.2020
    1DIPC   C1A24761  27.744  25.031   3.793  0.1101 -0.0375  0.1700
    1DIPC   D2A24762  28.032  25.185   3.955 -0.0097 -0.2905 -0.1666
    1DIPC   D3A24763  28.458  25.083   3.775 -0.3613 -0.0351 -0.1214
    1DIPC   C4A24764  28.708  25.020   4.197  0.1303  0.0126  0.1649
    1DIPC   C1B24765  27.255  25.153   3.984  0.0631 -0.0084  0.0959
    1DIPC   D2B24766  27.282  25.496   4.235 -0.3148 -0.0840 -0.1773
    1DIPC   D3B24767  27.030  25.755   4.369 -0.2449  0.0328 -0.3818
    1DIPC   C4B24768  27.023  25.944   4.678 -0.2410  0.0705 -0.3258
    1DIPC   NC324769   2.472  10.850   2.489  0.1933  0.1993  0.1953
    1DIPC   PO424770   2.546  10.703   2.884  0.0115 -0.1862 -0.0369
    1DIPC   GL124771   2.284  10.650   3.278  0.1728  0.0176 -0.0561
    1DIPC   GL224772   2.473  10.998   3.464 -0.0420  0.0184 -0.3247
    1DIPC   C1A24773   2.243  10.742   3.822  0.1168 -0.1295  0.0381
    1DIPC   D2A24774   2.083  10.894   4.077  0.2111  0.0262 -0.4764
    1DIPC   D3A24775   2.502  11.095   4.078  0.0816  0.0517  0.2675
    1DIPC   C4A24776   2.502  11.316   4.476  0.1163  0.0920 -0.3783
    1DIPC   C1B24777   2.093  11.226   3.738  0.1723 -0.0213 -0.0068
    1DIPC   D2B24778   2.068  11.458   4.143  0.1056  0.0710  0.0517
    1DIPC   D3B24779   2.249  11.907   4.474 -0.2747  0.2750 -0.0767
    1DIPC   C4B24780   2.655  11.767   4.561 -0.2272 -0.1772 -0.2681
    1DIPC   NC324781  22.606   6.116   3.053 -0.1350 -0.0362 -0.0807
    1DIPC   PO424782  22.846   5.792   3.004 -0.1765 -0.0605  0.1136
    1DIPC   GL124783  22.449   5.786   3.409 -0.0364  0.0386  0.0241
    1DIPC   GL224784  22.494   6.034   3.634 -0.0482 -0.0118 -0.1762
    1DIPC   C1A24785  22.195   5.644   3.830 -0.2232 -0.0153 -0.0062
    1DIPC   D2A24786  21.896   5.232   3.773  0.4334 -0.0672 -0.2180
    1DIPC   D3A24787  21.722   5.050   4.106  0.0439 -0.2120  0.0923
    1DIPC   C4A24788  21.664   5.222   4.537 -0.2232 -0.2880  0.1152
    1DIPC   C1B24789  22.442   6.047   4.121  0.4135  0.1489 -0.1374
    1DIPC   D2B24790  22.528   5.762   4.406  0.0303  0.0693  0.4058
    1DIPC   D3B24791  22.908   5.789   4.252 -0.0403  0.0786 -0.4504
    1DIPC   C4B24792  22.916   6.036   3.874  0.0709  0.2226  0.1105
    1DIPC   NC324793   0.407  11.300   2.739  0.0286 -0.2777  0.1187
    1DIPC   PO424794   0.512  10.940   2.894 -0.1273 -0.0874 -0.1042
    1DIPC   GL124795   0.180  10.883   3.152 -0.1312  0.3074  0.0290
    1DIPC   GL224796  -0.022  10.636   3.105 -0.0931 -0.1649 -0.3207
    1DIPC   C1A24797  -0.059  11.022   3.455  0.3703  0.0603 -0.0644
    1DIPC   D2A24798  -0.448  11.048   3.486  0.4468  0.1582 -0.1523
    1DIPC   D3A24799  -0.369  11.298   3.780 -0.1787 -0.5022  0.0107
    1DIPC   C4A24800  -0.403  11.310   4.259  0.1775 -0.1184  0.1138
    1DIPC   C1B24801   0.121  10.255   3.411  0.1721  0.1738  0.0412
    1DIPC   D2B24802   0.194   9.758   3.422 -0.4194 -0.1476 -0.5283
    1DIPC   D3B24803   0.193   9.719   3.854  0.0251 -0.0177 -0.1148
    1DIPC   C4B24804   0.302  10.006   4.222  0.2226 -0.0960 -0.1905
    1DIPC   NC324805  26.577   5.526   2.792  0.0912 -0.1774 -0.1832
    1DIPC   PO424806  26.756   5.296   3.120  0.0132 -0.0246 -0.0649
    1DIPC   GL124807  26.786   5.123   3.611 -0.0118  0.0160  0.0388
    1DIPC   GL224808  27.161   5.230   3.508 -0.2328 -0.2919  0.0045
    1DIPC   C1A24809  26.738   5.222   4.036 -0.1250 -0.0371 -0.0328
    1DIPC   D2A24810  26.778   5.502   4.495  0.2478  0.2267  0.3520
    1DIPC   D3A24811  27.228   5.394   4.602 -0.3669 -0.0672  0.0174
    1DIPC   C4A24812  27.380   5.697   4.762 -0.0161 -0.2917  0.2070
    1DIPC   C1B24813  27.204   5.477   3.766  0.0155 -0.0257 -0.1261
    1DIPC   D2B24814  27.237   5.311   4.095  0.1979  0.1716 -0.0156
    1DIPC   D3B24815  27.267   5.801   4.118 -0.2386 -0.2124  0.0617
    1DIPC   C4B24816  27.078   5.904   4.455 -0.1128 -0.0394 -0.3193
    1DIPC   NC324817  15.230  25.117   2.901  0.3170  0.0929 -0.1504
    1DIPC   PO424818  14.795  24.851   2.957 -0.2470  0.2163 -0.0144
    1DIPC   GL124819  14.838  24.797   3.428  0.1483 -0.0222  0.1352
    1DIPC   GL224820  14.560  24.756   3.384 -0.1178 -0.0282 -0.0610
    1DIPC   C1A24821  14.983  24.794   3.839 -0.0039 -0.2887  0.1090
    1DIPC   D2A24822  14.968  24.733   4.273  0.0871 -0.0330  0.1124
    1DIPC   D3A24823  15.229  24.423   4.344  0.4017  0.0199 -0.0406
    1DIPC   C4A24824  15.095  23.953   4.411  0.0420 -0.2453  0.3040
    1DIPC   C1B24825  14.656  24.380   3.636  0.0812  0.1346 -0.0547
    1DIPC   D2B24826  14.837  23.973   3.623 -0.1451  0.1763  0.2386
    1DIPC   D3B24827  15.249  23.955   3.330 -0.0056 -0.0392 -0.2064
    1DIPC   C4B24828  15.699  23.893   3.595 -0.0264 -0.0075 -0.0012
    1DIPC   NC324829   4.474  10.242   2.832 -0.0649  0.3532  0.0269
    1DIPC   PO424830   4.072  10.083   2.741 -0.3139 -0.1040 -0.0103
    1DIPC   GL124831   4.169  10.076   3.231  0.0639  0.2102 -0.0576
    1DIPC   GL224832   4.211  10.332   3.406 -0.0490 -0.1244 -0.0245
    1DIPC   C1A24833   4.399   9.898   3.628  0.2024 -0.3804  0.0242
    1DIPC   D2A24834   4.596   9.505   3.960 -0.5174 -0.2362 -0.0609
    1DIPC   D3A24835   4.630   9.523   4.413 -0.0680  0.1579  0.1032
    1DIPC   C4A24836   4.443   9.751   4.690 -0.1151  0.0427  0.1405
    1DIPC   C1B24837   4.191  10.638   3.720 -0.0996  0.2909 -0.0481
    1DIPC   D2B24838   4.085  10.719   4.075 -0.1224  0.3620  0.0516
    1DIPC   D3B24839   3.958  11.037   4.154 -0.1998 -0.2275  0.2290
    1DIPC   C4B24840   3.944  11.274   4.669  0.1095  0.1993  0.0268
    1DIPC   NC324841   0.872  17.374   2.209  0.3200  0.1301 -0.0425
    1DIPC   PO424842   1.312  17.273   2.175  0.0642  0.0512 -0.2605
    1DIPC   GL124843   1.607  17.370   2.582  0.0453  0.1186 -0.1395
    1DIPC   GL224844   1.586  17.295   2.881 -0.1555 -0.1178 -0.3168
    1DIPC   C1A24845   1.926  17.639   2.853  0.2818  0.0890 -0.0251
    1DIPC   D2A24846   2.021  18.115   3.058  0.1408 -0.2439  0.0637
    1DIPC   D3A24847   2.347  18.316   2.839 -0.1615 -0.2308  0.1438
    1DIPC   C4A24848   2.885  18.265   2.975 -0.1370 -0.2447  0.2950
    1DIPC   C1B24849   1.763  16.999   3.060 -0.0415  0.0157 -0.0527
    1DIPC   D2B24850   1.746  16.611   3.364 -0.0802 -0.2362 -0.0791
    1DIPC   D3B24851   1.908  16.780   3.635 -0.2807 -0.1998  0.3028
    1DIPC   C4B24852   2.151  17.000   3.479  0.0127  0.2535 -0.1110
    1DIPC   NC324853   3.218  26.311   2.604  0.0260  0.0664  0.3898
    1DIPC   PO424854   3.677  26.320   2.499 -0.1448 -0.1654  0.3132
    1DIPC   GL124855   3.639  26.361   2.937  0.1364 -0.2387  0.3837
    1DIPC   GL224856   3.575  26.145   3.193  0.0676  0.1638 -0.1678
    1DIPC   C1A24857   3.738  26.731   3.159 -0.0660  0.1815 -0.0268
    1DIPC   D2A24858   3.582  27.136   3.324  0.1039  0.0466  0.1279
    1DIPC   D3A24859   3.680  26.874   3.759  0.0327 -0.0299  0.0272
    1DIPC   C4A24860   3.492  27.172   4.013  0.0219 -0.1264  0.3267
    1DIPC   C1B24861   3.871  25.846   3.254 -0.1703 -0.1409  0.2007
    1DIPC   D2B24862   3.830  25.523   3.478  0.2070  0.2477 -0.0840
    1DIPC   D3B24863   3.676  25.680   3.853  0.0528  0.0575 -0.3500
    1DIPC   C4B24864   3.418  25.457   3.995  0.1911  0.1201  0.1797
    1DIPC   NC324865   0.636   0.740   2.386  0.1499  0.0351 -0.0539
    1DIPC   PO424866   0.563   0.587   2.831 -0.0082  0.0398  0.1227
    1DIPC   GL124867   0.682   0.700   3.214  0.3725 -0.0858 -0.3664
    1DIPC   GL224868   0.504   0.330   3.390 -0.2947 -0.1738 -0.2441
    1DIPC   C1A24869   0.696   1.046   3.476 -0.1108  0.3451  0.0607
    1DIPC   D2A24870   0.877   1.217   3.860 -0.1025  0.1790 -0.2484
    1DIPC   D3A24871   0.500   1.030   3.946 -0.2734  0.1937  0.3473
    1DIPC   C4A24872   0.369   0.741   3.730  0.0332  0.0189  0.1490
    1DIPC   C1B24873   0.516   0.205   3.926 -0.2116 -0.1940 -0.0240
    1DIPC   D2B24874   0.777  -0.229   4.099 -0.0422  0.0275 -0.0276
    1DIPC   D3B24875   0.898   0.046   4.426  0.0857  0.2204 -0.4475
    1DIPC   C4B24876   0.595   0.297   4.521 -0.0251 -0.0765  0.1736
    1DIPC   NC324877  15.401  27.870   2.778  0.1487 -0.2504  0.0739
    1DIPC   PO424878  15.356  27.923   3.254 -0.1757 -0.2156 -0.1594
    1DIPC   GL124879  15.216  28.145   3.538  0.1927 -0.3490 -0.1742
    1DIPC   GL224880  15.231  27.947   3.790 -0.0859  0.3102 -0.1960
    1DIPC   C1A24881  15.389  28.438   3.714 -0.2519 -0.1352 -0.1081
    1DIPC   D2A24882  15.711  28.635   3.843  0.0631 -0.1555 -0.1287
    1DIPC   D3A24883  15.835  28.974   3.974 -0.1139  0.3093  0.0020
    1DIPC   C4A24884  15.745  29.108   4.397  0.1711  0.3557 -0.2465
    1DIPC   C1B24885  15.541  27.815   4.051  0.0391  0.2396 -0.1024
    1DIPC   D2B24886  15.702  27.751   4.545 -0.0014 -0.1303 -0.2788
    1DIPC   D3B24887  15.247  27.904   4.598 -0.0085 -0.1117  0.1754
    1DIPC   C4B24888  15.048  27.854   4.226  0.1569  0.5409  0.0076
    1DIPC   NC324889  12.268   4.951   2.919  0.0020  0.3743 -0.3464
    1DIPC   PO424890  12.436   4.952   3.333  0.0220 -0.0913 -0.1522
    1DIPC   GL124891  12.456   4.900   3.802  0.0100  0.0371  0.0467
    1DIPC   GL224892  12.186   4.770   3.756 -0.0515  0.1078  0.0952
    1DIPC   C1A24893  12.591   4.785   4.259 -0.0652 -0.1412  0.0864
    1DIPC   D2A24894  12.452   4.749   4.678  0.1277 -0.0719  0.0441
    1DIPC   D3A24895  12.035   4.555   4.600 -0.0021 -0.2032 -0.1130
    1DIPC   C4A24896  11.856   4.754   4.947 -0.0648  0.0993  0.1732
    1DIPC   C1B24897  12.105   4.634   4.118 -0.2239  0.2153 -0.4262
    1DIPC   D2B24898  11.672   4.475   4.299 -0.0523 -0.0306  0.0515
    1DIPC   D3B24899  11.393   4.717   4.562  0.1229  0.0375 -0.3091
    1DIPC   C4B24900  11.330   4.818   4.923  0.0141 -0.1448 -0.0525
    1DIPC   NC324901  28.533  17.718   1.845 -0.1413 -0.1134 -0.2764
    1DIPC   PO424902  28.638  17.830   2.230 -0.0085 -0.2767  0.0393
    1DIPC   GL124903  28.677  17.578   2.638 -0.2856  0.1036  0.0803
    1DIPC   GL224904  28.788  17.229   2.650  0.3589  0.0530  0.4082
    1DIPC   C1A24905  28.422  17.571   3.019  0.1512 -0.1863  0.0017
    1DIPC   D2A24906  28.017  17.556   3.338  0.1906 -0.2778 -0.0322
    1DIPC   D3A24907  28.288  17.806   3.543  0.0844 -0.0464  0.0264
    1DIPC   C4A24908  28.486  17.827   3.964  0.0514 -0.2035 -0.0065
    1DIPC   C1B24909  28.909  17.301   3.117 -0.0330  0.3249 -0.3178
    1DIPC   D2B24910  28.626  17.474   3.500 -0.0231 -0.0170 -0.1450
    1DIPC   D3B24911  28.458  17.259   3.830 -0.0832 -0.1090  0.1404
    1DIPC   C4B24912  28.302  17.463   4.299  0.1717  0.1852 -0.0843
    1DIPC   NC324913   2.999  27.173   2.757 -0.0041  0.2805 -0.1245
    1DIPC   PO424914   2.542  27.158   2.828  0.0999 -0.3485  0.0200
    1DIPC   GL124915   2.234  27.108   3.174 -0.0455  0.3535  0.0606
    1DIPC   GL224916   2.182  27.341   3.395 -0.3313  0.0360  0.0509
    1DIPC   C1A24917   2.300  26.912   3.624  0.0349 -0.1382 -0.0597
    1DIPC   D2A24918   2.677  26.857   3.640  0.1918 -0.1555  0.0114
    1DIPC   D3A24919   2.652  26.944   4.033 -0.2231 -0.1117 -0.2985
    1DIPC   C4A24920   2.351  26.893   4.296 -0.2511 -0.2403 -0.1902
    1DIPC   C1B24921   2.119  27.634   3.622  0.1560  0.0653  0.0374
    1DIPC   D2B24922   2.108  27.851   4.055 -0.0896 -0.0165  0.4197
    1DIPC   D3B24923   1.729  27.944   4.327  0.2411  0.0572  0.0210
    1DIPC   C4B24924   1.809  27.890   4.735 -0.2444  0.2789  0.0127
    1DIPC   NC324925  12.319  21.642   1.995  0.2454  0.2373  0.1354
    1DIPC   PO424926  12.074  21.885   1.976  0.0368  0.3856  0.0201
    1DIPC   GL124927  11.817  21.865   2.311 -0.0326  0.0191 -0.0179
    1DIPC   GL224928  11.809  21.577   2.466  0.4117 -0.1750  0.1094
    1DIPC   C1A24929  11.560  22.028   2.651  0.0519  0.0474  0.2303
    1DIPC   D2A24930  11.470  22.263   3.046  0.0198  0.0671  0.1701
    1DIPC   D3A24931  11.166  21.942   3.101 -0.3549 -0.0919  0.0768
    1DIPC   C4A24932  11.096  21.804   2.698 -0.3343 -0.2409  0.1797
    1DIPC   C1B24933  11.620  21.655   2.968  0.1044  0.0177 -0.0902
    1DIPC   D2B24934  11.542  21.790   3.364  0.0218 -0.0062  0.0419
    1DIPC   D3B24935  11.504  21.578   3.739  0.0891  0.1187 -0.1442
    1DIPC   C4B24936  11.109  21.703   3.962  0.1283  0.1948 -0.0409
    1DIPC   NC324937   1.054  18.489   3.102 -0.0790  0.2308 -0.3047
    1DIPC   PO424938   0.718  18.556   2.826 -0.1690  0.2051  0.1119
    1DIPC   GL124939   0.604  18.177   3.182 -0.1236  0.0731  0.0056
    1DIPC   GL224940   0.323  18.360   3.304 -0.0824 -0.1700 -0.2083
    1DIPC   C1A24941   0.585  17.807   3.458 -0.2864  0.1543  0.3349
    1DIPC   D2A24942   0.445  17.411   3.640 -0.0964  0.2289 -0.0483
    1DIPC   D3A24943   0.391  17.534   4.020 -0.2593 -0.2560 -0.1856
    1DIPC   C4A24944   0.369  17.223   4.364 -0.0748 -0.3264 -0.3062
    1DIPC   C1B24945   0.345  18.427   3.707  0.3410 -0.1237 -0.0066
    1DIPC   D2B24946   0.471  18.539   4.143  0.0983 -0.2711 -0.3567
    1DIPC   D3B24947   0.473  18.953   3.928  0.0923  0.2351 -0.0799
    1DIPC   C4B24948   0.762  19.053   4.296  0.1221  0.0036  0.0638
    1DIPC   NC324949  12.152   5.246   3.561 -0.2989  0.0328  0.1404
    1DIPC   PO424950  12.012   5.593   3.385 -0.2058  0.2237  0.1705
    1DIPC   GL124951  11.797   5.704   3.792  0.2615  0.2780 -0.3415
    1DIPC   GL224952  11.738   6.080   3.961  0.0615  0.0983 -0.2073
    1DIPC   C1A24953  12.013   5.706   4.155 -0.3795  0.1398  0.0684
    1DIPC   D2A24954  12.134   5.654   4.573  0.0841 -0.2455 -0.0209
    1DIPC   D3A24955  11.761   5.517   4.621  0.0660 -0.2593  0.0042
    1DIPC   C4A24956  11.712   5.216   4.939 -0.1523 -0.1240  0.0219
    1DIPC   C1B24957  11.624   5.915   4.303  0.2959 -0.1138  0.0425
    1DIPC   D2B24958  11.361   5.880   4.605 -0.2426  0.1489 -0.0744
    1DIPC   D3B24959  11.480   6.332   4.495  0.4497  0.0077 -0.0828
    1DIPC   C4B24960  11.373   6.354   4.080 -0.0547  0.1577  0.1949
    1DIPC   NC324961  14.881  23.414   2.212 -0.1746  0.0822  0.1638
    1DIPC   PO424962  15.234  23.275   2.394 -0.0002  0.1993  0.1734
    1DIPC   GL124963  15.288  23.204   2.881  0.0410  0.0152  0.0496
    1DIPC   GL224964  15.161  23.461   3.172  0.0263 -0.0734  0.2682
    1DIPC   C1A24965  14.966  22.954   3.173  0.1187 -0.1549  0.2372
    1DIPC   D2A24966  15.051  22.723   3.619  0.0409  0.0301 -0.0513
    1DIPC   D3A24967  15.343  22.991   3.838 -0.0848  0.0725 -0.3952
    1DIPC   C4A24968  15.314  23.339   4.158 -0.0116 -0.4584 -0.0015
    1DIPC   C1B24969  15.044  23.380   3.537 -0.0293  0.1794 -0.0521
    1DIPC   D2B24970  14.932  23.215   3.905 -0.2436 -0.2410 -0.0218
    1DIPC   D3B24971  14.692  22.794   3.990 -0.0544  0.2644 -0.2133
    1DIPC   C4B24972  14.787  22.515   4.312  0.0671 -0.2121  0.0785
    1DIPC   NC324973   7.031  28.487   2.593  0.1224 -0.1342 -0.1800
    1DIPC   PO424974   7.011  28.331   3.003 -0.0601 -0.1315 -0.2795
    1DIPC   GL124975   6.941  28.049   3.339 -0.0163  0.1606 -0.2009
    1DIPC   GL224976   6.892  27.686   3.474 -0.0513  0.2569  0.1449
    1DIPC   C1A24977   6.616  28.021   3.667  0.1006  0.0932 -0.1470
    1DIPC   D2A24978   6.286  28.079   3.957 -0.3245  0.0897  0.0580
    1DIPC   D3A24979   6.503  28.269   4.303 -0.1150  0.2462  0.2746
    1DIPC   C4A24980   6.700  27.990   4.671 -0.1992 -0.0400 -0.3087
    1DIPC   C1B24981   6.679  27.437   3.797  0.0574 -0.0622 -0.1861
    1DIPC   D2B24982   6.539  27.149   4.041 -0.1211 -0.0778  0.0541
    1DIPC   D3B24983   7.018  27.275   4.226 -0.1345 -0.1743 -0.0483
    1DIPC   C4B24984   7.008  27.436   4.651  0.1257  0.3136  0.2932
    1DIPC   NC324985   5.659  29.418   3.440 -0.1365 -0.1129  0.1013
    1DIPC   PO424986   5.747  29.024   3.172 -0.0334  0.2620 -0.3423
    1DIPC   GL124987   5.656  28.897   3.440  0.0820 -0.3966  0.2640
    1DIPC   GL224988   5.430  29.077   3.707  0.0867  0.3192  0.2596
    1DIPC   C1A24989   5.857  28.767   3.785 -0.1429  0.1935  0.1377
    1DIPC   D2A24990   6.084  28.500   4.127  0.0944  0.0224 -0.0316
    1DIPC   D3A24991   5.990  28.525   4.560  0.0859  0.0023 -0.2981
    1DIPC   C4A24992   5.822  28.114   4.796  0.2185  0.0399  0.1312
    1DIPC   C1B24993   5.277  28.974   4.081  0.1362 -0.0440 -0.1743
    1DIPC   D2B24994   5.147  28.697   4.426 -0.0324  0.3612 -0.1582
    1DIPC   D3B24995   5.305  28.343   4.647 -0.0840 -0.0286  0.0833
    1DIPC   C4B24996   5.028  28.094   4.773 -0.0913 -0.0103 -0.1632
    1DIPC   NC324997  24.921  28.663   2.631  0.3621  0.0670 -0.2212
    1DIPC   PO424998  25.011  28.691   3.116  0.2463  0.0836  0.1904
    1DIPC   GL124999  24.998  28.812   3.502 -0.2334 -0.0303 -0.2156
    1DIPC   GL225000  25.105  29.074   3.590 -0.0141  0.0181 -0.1925
    1DIPC   C1A25001  25.317  28.609   3.706  0.0311 -0.0159 -0.2982
    1DIPC   D2A25002  25.523  28.318   4.039 -0.3761  0.1932 -0.1940
    1DIPC   D3A25003  25.546  28.525   4.491 -0.0883  0.2055 -0.1106
    1DIPC   C4A25004  25.746  28.354   4.844  0.2918 -0.0816  0.1069
    1DIPC   C1B25005  25.036  28.929   4.037  0.4454 -0.1742 -0.2588
    1DIPC   D2B25006  25.139  28.605   4.186 -0.3503  0.0901  0.3321
    1DIPC   D3B25007  25.059  28.218   4.288 -0.1192 -0.0331  0.0113
    1DIPC   C4B25008  24.678  28.053   4.496  0.3306  0.2244 -0.0479
    1DIPC   NC325009  29.687   9.357   2.595 -0.3513  0.2383  0.2665
    1DIPC   PO425010  29.480   9.008   2.735  0.1892  0.1604 -0.2649
    1DIPC   GL125011  29.471   8.835   3.172 -0.0059  0.0878 -0.1550
    1DIPC   GL225012  29.672   9.041   3.205 -0.0774  0.1404  0.1117
    1DIPC   C1A25013  29.449   8.758   3.554  0.1531  0.0040  0.2158
    1DIPC   D2A25014  29.631   8.937   3.996  0.2171  0.0692 -0.1508
    1DIPC   D3A25015  29.833   9.262   3.688 -0.2384  0.1088  0.1965
    1DIPC   C4A25016  29.502   9.562   3.422  0.1917 -0.0476 -0.1191
    1DIPC   C1B25017  29.957   8.778   3.347 -0.0646  0.1513  0.2145
    1DIPC   D2B25018  30.265   8.879   3.706 -0.2351 -0.0054 -0.2946
    1DIPC   D3B25019  30.355   9.340   3.818  0.0053  0.3570  0.3219
    1DIPC   C4B25020  30.061   9.240   4.133 -0.2138 -0.0342 -0.0136
    1DIPC   NC325021  23.140  18.275   2.195 -0.2438 -0.0393 -0.0202
    1DIPC   PO425022  23.127  18.259   2.561 -0.0613  0.1198  0.1374
    1DIPC   GL125023  23.216  17.948   2.892 -0.0315  0.2506  0.0953
    1DIPC   GL225024  23.319  17.680   2.718 -0.0104 -0.0044  0.0861
    1DIPC   C1A25025  23.473  17.703   3.165  0.1957  0.2214  0.1905
    1DIPC   D2A25026  23.841  17.550   3.211 -0.2783 -0.0135 -0.1469
    1DIPC   D3A25027  23.690  17.527   3.576 -0.0747  0.1877  0.1933
    1DIPC   C4A25028  23.299  17.732   3.653 -0.0800 -0.0997  0.0521
    1DIPC   C1B25029  23.084  17.346   2.868 -0.2575 -0.0846 -0.0383
    1DIPC   D2B25030  22.936  16.880   2.768  0.1982  0.0470  0.2156
    1DIPC   D3B25031  23.344  16.737   2.866  0.0903  0.2368 -0.0190
    1DIPC   C4B25032  23.541  16.561   3.274 -0.0048  0.0260 -0.0765
    1DIPC   NC325033  19.906  29.508   2.852  0.1493  0.0800 -0.0603
    1DIPC   PO425034  19.493  29.300   2.924 -0.6050 -0.2374 -0.1854
    1DIPC   GL125035  19.612  29.149   3.283 -0.1300 -0.0904  0.2082
    1DIPC   GL225036  19.339  29.348   3.512  0.0396  0.1055  0.1687
    1DIPC   C1A25037  19.719  29.033   3.713  0.0044 -0.0369 -0.2145
    1DIPC   D2A25038  19.709  28.972   4.178  0.2495  0.0555  0.3120
    1DIPC   D3A25039  19.676  29.484   4.077  0.0292 -0.0590 -0.1084
    1DIPC   C4A25040  19.367  29.701   3.807  0.3792 -0.0845  0.1951
    1DIPC   C1B25041  19.205  29.271   3.942 -0.1238 -0.1025 -0.0132
    1DIPC   D2B25042  18.987  29.401   4.224 -0.0189  0.1659 -0.1825
    1DIPC   D3B25043  19.210  29.754   4.345  0.0091  0.2105  0.0034
    1DIPC   C4B25044  18.977  30.098   4.021 -0.4385  0.0561 -0.0112
    1DIPC   NC325045   9.165  25.011   2.504  0.2620 -0.1631  0.0308
    1DIPC   PO425046   9.094  25.377   2.493  0.1717  0.1791  0.1465
    1DIPC   GL125047   8.959  25.304   2.876 -0.2397  0.1768 -0.2694
    1DIPC   GL225048   9.142  25.106   3.044  0.1989 -0.1243  0.0185
    1DIPC   C1A25049   9.108  25.377   3.440 -0.0110 -0.0181 -0.2612
    1DIPC   D2A25050   9.185  25.207   3.825 -0.1246 -0.0792 -0.0305
    1DIPC   D3A25051   9.468  25.555   3.862 -0.1964 -0.2362  0.1353
    1DIPC   C4A25052   9.817  25.397   3.562  0.1201 -0.1466 -0.0697
    1DIPC   C1B25053   9.011  24.778   3.405  0.2698  0.2650  0.2293
    1DIPC   D2B25054   8.980  24.506   3.765 -0.0618  0.0999  0.0323
    1DIPC   D3B25055   8.757  24.630   4.047 -0.2225 -0.1125 -0.1639
    1DIPC   C4B25056   8.389  24.422   4.095  0.0830  0.3567  0.1293
    1DIPC   NC325057  24.454   1.906   3.590  0.1235 -0.0687 -0.1886
    1DIPC   PO425058  24.023   1.712   3.501 -0.0011 -0.0425  0.1708
    1DIPC   GL125059  24.133   1.695   3.950 -0.3174  0.1504 -0.0062
    1DIPC   GL225060  23.875   1.475   3.953  0.0831  0.0750  0.1298
    1DIPC   C1A25061  24.310   1.472   4.308 -0.0155 -0.0711  0.3268
    1DIPC   D2A25062  24.565   1.127   4.501  0.2575  0.1261 -0.2081
    1DIPC   D3A25063  24.270   1.104   4.732 -0.0906  0.2133 -0.2993
    1DIPC   C4A25064  24.375   0.994   5.140 -0.1733  0.1077 -0.0997
    1DIPC   C1B25065  23.828   1.690   4.308 -0.6561 -0.1250 -0.1207
    1DIPC   D2B25066  23.806   2.036   4.558 -0.0314 -0.0119  0.0240
    1DIPC   D3B25067  24.030   2.118   4.821 -0.3321 -0.1685  0.3213
    1DIPC   C4B25068  23.980   1.961   5.256 -0.0661  0.1016 -0.0054
    1DIPC   NC325069  16.754  11.118   2.286 -0.0595  0.1112 -0.2063
    1DIPC   PO425070  16.413  11.217   2.566 -0.0208  0.4135 -0.0412
    1DIPC   GL125071  16.483  10.921   2.871  0.0017  0.2188  0.1795
    1DIPC   GL225072  16.796  10.946   2.804 -0.2844 -0.3795 -0.2668
    1DIPC   C1A25073  16.558  10.922   3.268  0.0878  0.1647 -0.1910
    1DIPC   D2A25074  16.700  10.816   3.595  0.0888 -0.1868 -0.0840
    1DIPC   D3A25075  17.119  10.864   3.735 -0.2752  0.0745 -0.1199
    1DIPC   C4A25076  17.522  10.768   3.447  0.1150 -0.3577 -0.1526
    1DIPC   C1B25077  17.037  10.850   3.202  0.2840 -0.0406  0.0312
    1DIPC   D2B25078  17.079  10.457   3.279 -0.0826  0.1560  0.1395
    1DIPC   D3B25079  16.922  10.336   3.729 -0.0252  0.0588  0.0714
    1DIPC   C4B25080  16.816  10.555   4.065 -0.4055  0.2095 -0.1366
    1DIPC   NC325081   1.434  21.444   2.113  0.1181  0.3536  0.2497
    1DIPC   PO425082   1.575  21.086   2.143 -0.0730  0.1290  0.1726
    1DIPC   GL125083   1.862  21.086   2.562 -0.0747 -0.0556 -0.2106
    1DIPC   GL225084   2.073  20.916   2.407  0.1682  0.0046  0.1025
    1DIPC   C1A25085   2.012  20.845   2.962  0.0234 -0.0217  0.2237
    1DIPC   D2A25086   2.276  20.972   3.383 -0.0524 -0.1796 -0.0749
    1DIPC   D3A25087   2.554  20.660   3.590 -0.2223  0.1856  0.0057
    1DIPC   C4A25088   2.468  20.616   4.008  0.1410 -0.2091 -0.0805
    1DIPC   C1B25089   2.443  20.770   2.689  0.1126  0.1315 -0.1869
    1DIPC   D2B25090   2.594  20.610   3.113  0.3429 -0.0471 -0.1149
    1DIPC   D3B25091   2.970  20.366   3.165 -0.3764 -0.0413  0.2980
    1DIPC   C4B25092   2.886  20.208   3.573 -0.0944  0.1949 -0.2813
    1DIPC   NC325093   9.293  29.185   2.855  0.0555 -0.1639 -0.0611
    1DIPC   PO425094   9.353  29.307   3.385 -0.0333  0.1079 -0.0321
    1DIPC   GL125095   9.245  29.105   3.833  0.2305  0.0756 -0.0551
    1DIPC   GL225096   9.341  28.836   3.596  0.2881 -0.0728  0.1746
    1DIPC   C1A25097   9.286  28.950   4.297  0.3317 -0.0002  0.1224
    1DIPC   D2A25098   9.532  29.086   4.753 -0.1263 -0.0062 -0.0946
    1DIPC   D3A25099   9.529  28.709   5.042 -0.0366 -0.0004 -0.0195
    1DIPC   C4A25100   9.629  28.214   5.036  0.0942 -0.2820 -0.2651
    1DIPC   C1B25101   9.529  28.615   4.012 -0.1554  0.0136 -0.0788
    1DIPC   D2B25102   9.516  28.547   4.480  0.1165  0.0450  0.1242
    1DIPC   D3B25103   9.150  28.708   4.699  0.1001 -0.1617 -0.0324
    1DIPC   C4B25104   8.774  28.624   4.487 -0.1466 -0.1005  0.0170
    1DIPC   NC325105  27.081  14.388   2.356  0.0591 -0.2071 -0.0539
    1DIPC   PO425106  26.632  14.287   2.402  0.1734  0.0781 -0.2175
    1DIPC   GL125107  26.760  14.467   2.766 -0.0786  0.2443  0.2202
    1DIPC   GL225108  26.595  14.864   2.897 -0.0917 -0.1191 -0.1537
    1DIPC   C1A25109  26.791  14.352   3.225 -0.0620 -0.0664 -0.0640
    1DIPC   D2A25110  26.830  14.579   3.611 -0.1804  0.0164 -0.0599
    1DIPC   D3A25111  26.340  14.631   3.681 -0.1929 -0.0660  0.0063
    1DIPC   C4A25112  26.038  14.632   3.451 -0.0856 -0.3300  0.0530
    1DIPC   C1B25113  26.613  14.965   3.374  0.2257 -0.0304 -0.2367
    1DIPC   D2B25114  26.751  15.044   3.841  0.1665  0.1295  0.2484
    1DIPC   D3B25115  26.463  14.814   4.163  0.0288  0.0666  0.2642
    1DIPC   C4B25116  26.110  14.584   4.218  0.1041 -0.2158 -0.1434
    1DIPC   NC325117   1.518  28.290   2.519  0.1297 -0.0862 -0.0361
    1DIPC   PO425118   1.303  27.887   2.581  0.1184 -0.1029 -0.1858
    1DIPC   GL125119   1.270  27.848   3.029 -0.0698  0.1138 -0.3067
    1DIPC   GL225120   1.093  27.674   3.025  0.0298 -0.1489  0.1440
    1DIPC   C1A25121   1.354  27.735   3.481  0.0767  0.2998 -0.2154
    1DIPC   D2A25122   1.671  27.539   3.872 -0.2749  0.0866  0.0433
    1DIPC   D3A25123   1.868  27.456   4.370  0.0590  0.2108  0.0573
    1DIPC   C4A25124   2.102  27.233   4.534  0.0852 -0.4008 -0.1344
    1DIPC   C1B25125   1.228  27.303   3.059  0.3232 -0.3807 -0.0062
    1DIPC   D2B25126   1.074  27.021   3.279 -0.1479 -0.1434 -0.0962
    1DIPC   D3B25127   0.953  26.876   3.775 -0.1276 -0.0242  0.1807
    1DIPC   C4B25128   0.657  26.651   3.991  0.2035 -0.0836  0.2024
    1DIPC   NC325129  18.541   4.038   2.042  0.2976  0.0921 -0.0266
    1DIPC   PO425130  18.427   3.887   2.444 -0.2753  0.0705 -0.4153
    1DIPC   GL125131  18.220   3.965   2.796  0.5228 -0.0083  0.1148
    1DIPC   GL225132  18.006   4.209   2.738 -0.1979  0.1875 -0.2989
    1DIPC   C1A25133  17.879   4.102   3.194  0.2571 -0.0575 -0.0505
    1DIPC   D2A25134  17.979   4.168   3.571 -0.0520 -0.0620  0.1742
    1DIPC   D3A25135  18.187   4.290   3.978  0.1042 -0.1491 -0.0599
    1DIPC   C4A25136  18.425   4.216   4.395  0.0509 -0.0576  0.1315
    1DIPC   C1B25137  18.278   4.406   3.105  0.0613  0.0020  0.2548
    1DIPC   D2B25138  18.644   4.202   3.222 -0.0360 -0.0138  0.1975
    1DIPC   D3B25139  18.338   3.913   3.261 -0.0359  0.0968 -0.0791
    1DIPC   C4B25140  18.207   3.747   3.708  0.0094 -0.2284 -0.1903
    1DIPC   NC325141  29.184  21.941   2.288 -0.0488  0.1633  0.0555
    1DIPC   PO425142  28.673  21.863   2.359 -0.1253  0.1289 -0.1600
    1DIPC   GL125143  28.937  21.931   2.694  0.0153 -0.1800 -0.2377
    1DIPC   GL225144  29.198  21.743   2.858 -0.0407  0.1493 -0.0994
    1DIPC   C1A25145  28.851  22.212   3.063 -0.0354 -0.3468  0.2368
    1DIPC   D2A25146  29.014  22.294   3.483  0.1608  0.2609  0.1592
    1DIPC   D3A25147  28.627  22.105   3.635  0.0715  0.1795  0.1358
    1DIPC   C4A25148  28.469  21.879   3.211 -0.2147  0.0561 -0.1783
    1DIPC   C1B25149  29.393  21.628   3.264 -0.0055 -0.0373 -0.2445
    1DIPC   D2B25150  29.346  21.619   3.707 -0.0735  0.1607 -0.0582
    1DIPC   D3B25151  29.781  21.744   3.801  0.2659 -0.1049 -0.0864
    1DIPC   C4B25152  29.931  21.823   4.263 -0.0920  0.3271  0.0553
    1DIPC   NC325153  17.704  27.004   3.417  0.0913 -0.1686  0.0902
    1DIPC   PO425154  17.581  26.579   3.471 -0.1608 -0.4412  0.0032
    1DIPC   GL125155  17.543  26.393   4.027 -0.0375  0.0309 -0.4153
    1DIPC   GL225156  17.303  26.121   4.079  0.1447 -0.0288  0.0020
    1DIPC   C1A25157  17.701  26.233   4.394  0.2560 -0.0816  0.1043
    1DIPC   D2A25158  17.502  25.943   4.657 -0.2387 -0.2086  0.1447
    1DIPC   D3A25159  17.127  26.047   4.575 -0.1036 -0.0879  0.3016
    1DIPC   C4A25160  16.759  25.723   4.573 -0.1295  0.1718 -0.1065
    1DIPC   C1B25161  17.191  26.503   4.345  0.6366  0.0615  0.4572
    1DIPC   D2B25162  17.492  26.676   4.690 -0.2916 -0.1407  0.0143
    1DIPC   D3B25163  17.279  26.373   4.903 -0.2554  0.0234 -0.0156
    1DIPC   C4B25164  16.882  26.440   5.207 -0.3835 -0.3284 -0.0816
    1DIPC   NC325165   3.439  29.302   2.991 -0.1499 -0.0214 -0.5776
    1DIPC   PO425166   3.101  29.671   3.022  0.0274  0.0291 -0.1046
    1DIPC   GL125167   2.736  29.688   3.373 -0.1663  0.1709  0.0243
    1DIPC   GL225168   2.423  29.902   3.312  0.0332 -0.0310 -0.1274
    1DIPC   C1A25169   2.777  29.844   3.785  0.0603  0.1056 -0.2704
    1DIPC   D2A25170   2.821  30.098   4.207 -0.1067 -0.2514 -0.0255
    1DIPC   D3A25171   3.116  30.428   4.249 -0.2504  0.2437  0.2232
    1DIPC   C4A25172   3.049  30.867   4.405  0.1061 -0.0493  0.1138
    1DIPC   C1B25173   2.340  30.150   3.658  0.0265 -0.0936 -0.2043
    1DIPC   D2B25174   2.226  30.268   4.115 -0.0649  0.1635 -0.2078
    1DIPC   D3B25175   2.010  29.972   4.400  0.0097  0.0433 -0.2842
    1DIPC   C4B25176   1.974  30.075   4.850  0.2164 -0.1415  0.2448
    1DIPC   NC325177   3.952  14.777   2.305 -0.1831 -0.0398 -0.1145
    1DIPC   PO425178   4.288  15.182   2.478 -0.0371  0.0666  0.1793
    1DIPC   GL125179   4.418  15.162   2.896 -0.0538  0.2934 -0.1790
    1DIPC   GL225180   4.678  15.279   2.986  0.0405 -0.1898 -0.1356
    1DIPC   C1A25181   4.336  14.803   3.311  0.3791 -0.3063  0.2282
    1DIPC   D2A25182   4.142  14.527   3.680  0.2874  0.0600  0.4204
    1DIPC   D3A25183   4.247  14.935   3.815 -0.1237 -0.1571  0.3284
    1DIPC   C4A25184   4.349  15.226   3.533 -0.1198  0.0486  0.1210
    1DIPC   C1B25185   4.845  15.271   3.417 -0.0509 -0.3677  0.0476
    1DIPC   D2B25186   4.726  15.163   3.892  0.1862 -0.2274 -0.0620
    1DIPC   D3B25187   5.072  15.111   4.333 -0.0347 -0.0989  0.0957
    1DIPC   C4B25188   5.303  15.342   4.717 -0.0301 -0.1386 -0.0953
    1DIPC   NC325189  28.368  24.264   2.509 -0.0355 -0.1639 -0.0354
    1DIPC   PO425190  28.781  23.963   2.632 -0.0380 -0.2258  0.1628
    1DIPC   GL125191  28.772  24.261   2.949 -0.2328 -0.1009  0.0497
    1DIPC   GL225192  28.508  24.446   2.982  0.0746 -0.1114  0.0963
    1DIPC   C1A25193  28.785  24.219   3.433  0.1182  0.2945 -0.0402
    1DIPC   D2A25194  29.027  24.381   3.752 -0.0386 -0.1831  0.0171
    1DIPC   D3A25195  28.768  24.528   4.172 -0.0899  0.0334 -0.0628
    1DIPC   C4A25196  28.461  24.636   4.280  0.0408  0.0052  0.0261
    1DIPC   C1B25197  28.473  24.577   3.304 -0.1572 -0.1567 -0.0816
    1DIPC   D2B25198  28.585  24.632   3.695 -0.0595 -0.1143  0.0357
    1DIPC   D3B25199  28.959  24.908   3.774 -0.0917 -0.0618  0.3290
    1DIPC   C4B25200  29.119  25.320   3.801  0.2890  0.1536 -0.0772
    1DIPC   NC325201   1.704   7.773   3.257 -0.0355  0.2372 -0.0484
    1DIPC   PO425202   1.959   7.429   3.261 -0.4245 -0.0633 -0.3169
    1DIPC   GL125203   1.804   7.386   3.679 -0.0589  0.2354 -0.1436
    1DIPC   GL225204   1.796   7.086   3.687  0.1682  0.1089 -0.1007
    1DIPC   C1A25205   1.669   7.473   4.132 -0.0199 -0.0518  0.0048
    1DIPC   D2A25206   1.808   7.612   4.506 -0.2302  0.0090 -0.0936
    1DIPC   D3A25207   1.611   7.959   4.656 -0.2063  0.1590 -0.2960
    1DIPC   C4A25208   1.675   8.197   5.026  0.1655 -0.0696  0.0710
    1DIPC   C1B25209   1.496   6.992   3.932  0.5543 -0.2040 -0.1935
    1DIPC   D2B25210   1.152   7.143   4.125 -0.1217 -0.2282  0.2536
    1DIPC   D3B25211   0.699   7.216   4.053 -0.1370  0.2074  0.2157
    1DIPC   C4B25212   0.380   7.188   3.753 -0.1808  0.1035  0.5119
    1DIPC   NC325213  16.052  23.757   2.576  0.1352 -0.0821 -0.0446
    1DIPC   PO425214  15.885  24.137   2.708 -0.1414  0.0851 -0.2601
    1DIPC   GL125215  15.857  23.983   3.133  0.1123 -0.2786  0.0603
    1DIPC   GL225216  15.730  23.776   3.100 -0.0224 -0.0483  0.0703
    1DIPC   C1A25217  16.164  24.030   3.476 -0.5345  0.0511 -0.2984
    1DIPC   D2A25218  16.472  24.089   3.781 -0.1928  0.3240 -0.2680
    1DIPC   D3A25219  16.216  24.471   3.860  0.0491 -0.1173  0.2282
    1DIPC   C4A25220  15.861  24.451   3.607  0.0509  0.1911  0.1874
    1DIPC   C1B25221  15.671  23.477   3.262 -0.0897  0.0317 -0.2676
    1DIPC   D2B25222  15.579  23.424   3.721  0.1132 -0.1798 -0.1162
    1DIPC   D3B25223  15.773  23.217   4.039 -0.0037 -0.0371  0.0344
    1DIPC   C4B25224  16.157  23.111   4.323  0.0431 -0.2769 -0.2318
    1DIPC   NC325225  20.867  25.250   3.254  0.1933 -0.0967  0.1582
    1DIPC   PO425226  20.773  25.517   2.987 -0.2069 -0.2001  0.1742
    1DIPC   GL125227  20.904  25.678   3.472 -0.0577  0.0919  0.2362
    1DIPC   GL225228  21.220  25.527   3.618  0.1971 -0.0224  0.1778
    1DIPC   C1A25229  20.854  25.972   3.886  0.0250  0.2908 -0.1898
    1DIPC   D2A25230  20.616  25.955   4.262 -0.0783  0.2264 -0.1426
    1DIPC   D3A25231  20.843  25.904   4.705 -0.0574 -0.0135 -0.2539
    1DIPC   C4A25232  20.874  26.229   5.069 -0.1385 -0.0912 -0.0616
    1DIPC   C1B25233  21.177  25.450   4.068 -0.1484 -0.2245  0.1174
    1DIPC   D2B25234  21.404  25.502   4.555  0.2202 -0.1347  0.1237
    1DIPC   D3B25235  21.581  25.978   4.595 -0.0667 -0.1974 -0.1020
    1DIPC   C4B25236  21.239  26.260   4.674 -0.1705  0.0245  0.1913
    1DIPC   NC325237   3.074   1.882   2.948 -0.2054 -0.1976  0.1584
    1DIPC   PO425238   3.315   2.125   3.128 -0.0164 -0.2086  0.3873
    1DIPC   GL125239   3.115   1.844   3.525 -0.0512  0.4283  0.1909
    1DIPC   GL225240   3.391   1.740   3.607 -0.2895  0.0978 -0.0507
    1DIPC   C1A25241   2.892   1.938   3.797 -0.2206 -0.2474  0.0506
    1DIPC   D2A25242   2.589   2.168   3.932 -0.1859  0.3494 -0.2823
    1DIPC   D3A25243   2.380   2.144   4.363  0.1374 -0.1275  0.2868
    1DIPC   C4A25244   2.034   2.416   4.399  0.1485  0.0861 -0.1746
    1DIPC   C1B25245   3.292   1.523   3.923  0.0964 -0.1003  0.0828
    1DIPC   D2B25246   3.218   1.518   4.317  0.0933 -0.1635  0.0755
    1DIPC   D3B25247   3.017   1.883   4.347 -0.0571 -0.2955  0.1596
    1DIPC   C4B25248   2.706   1.743   4.188  0.2206 -0.1163 -0.2458
    1DIPC   NC325249   1.156  19.237   2.573 -0.0695 -0.1367  0.1652
    1DIPC   PO425250   0.837  19.054   2.831 -0.1663 -0.1359 -0.1652
    1DIPC   GL125251   0.899  19.035   3.168 -0.0348  0.2893  0.1286
    1DIPC   GL225252   1.247  19.202   3.073  0.0045  0.0507  0.2456
    1DIPC   C1A25253   0.949  19.043   3.606 -0.3571  0.3079  0.1299
    1DIPC   D2A25254   1.168  19.133   3.934  0.1852 -0.0183 -0.1701
    1DIPC   D3A25255   1.126  19.512   4.125 -0.2791  0.2020  0.0225
    1DIPC   C4A25256   0.801  19.821   4.221  0.1524  0.3394 -0.0063
    1DIPC   C1B25257   1.419  19.276   3.535  0.1402 -0.0518  0.1097
    1DIPC   D2B25258   1.626  19.428   3.906 -0.2916 -0.2778 -0.3316
    1DIPC   D3B25259   1.886  19.425   3.566 -0.0050  0.0838  0.1416
    1DIPC   C4B25260   2.134  19.735   3.622  0.1674  0.1110 -0.2792
    1DIPC   NC325261  15.050   2.476   2.822 -0.1182 -0.1597  0.2922
    1DIPC   PO425262  15.121   2.140   3.041 -0.0757  0.0527 -0.2484
    1DIPC   GL125263  15.288   2.298   3.341  0.0248 -0.0938 -0.2201
    1DIPC   GL225264  15.572   2.318   3.415  0.0294  0.0618  0.1748
    1DIPC   C1A25265  15.276   2.587   3.715  0.0730 -0.1056  0.1895
    1DIPC   D2A25266  15.516   2.532   4.149 -0.2596  0.0211  0.0269
    1DIPC   D3A25267  15.533   2.306   4.616  0.0734  0.2327  0.3336
    1DIPC   C4A25268  15.827   2.420   4.738  0.1197  0.2918  0.1390
    1DIPC   C1B25269  15.756   2.315   3.783  0.1750 -0.1079  0.0422
    1DIPC   D2B25270  15.729   2.065   4.160  0.2672  0.3034  0.1204
    1DIPC   D3B25271  16.054   2.392   4.203 -0.3574 -0.1068 -0.1024
    1DIPC   C4B25272  16.396   2.317   4.502 -0.0528 -0.1390  0.0130
    1DIPC   NC325273  29.112   3.041   2.530 -0.0296 -0.1312 -0.1350
    1DIPC   PO425274  28.841   2.942   2.877  0.0920 -0.0041 -0.4018
    1DIPC   GL125275  29.013   3.100   3.305 -0.1156 -0.1447  0.2903
    1DIPC   GL225276  29.275   2.947   3.447 -0.0681  0.2809  0.4470
    1DIPC   C1A25277  29.056   3.392   3.671 -0.2614  0.1720  0.2053
    1DIPC   D2A25278  28.926   3.711   4.036  0.2945  0.0705  0.2796
    1DIPC   D3A25279  29.117   3.824   4.448  0.4286 -0.1920 -0.0113
    1DIPC   C4A25280  29.442   4.130   4.542 -0.1599 -0.0216  0.0683
    1DIPC   C1B25281  29.204   2.999   3.921  0.0939 -0.1681  0.2715
    1DIPC   D2B25282  29.309   2.863   4.408 -0.0870  0.2366  0.0166
    1DIPC   D3B25283  28.928   2.945   4.702  0.0771  0.3185 -0.1367
    1DIPC   C4B25284  28.544   3.137   4.691  0.2722  0.2368 -0.0553
    1DIPC   NC325285   6.712   4.440   3.797  0.2247  0.2475 -0.0003
    1DIPC   PO425286   6.716   3.980   3.846  0.1556  0.0549 -0.1615
    1DIPC   GL125287   6.848   4.069   4.206  0.0561 -0.2192  0.0473
    1DIPC   GL225288   6.707   3.855   4.355 -0.0202 -0.3273  0.0288
    1DIPC   C1A25289   7.082   4.124   4.617 -0.0710  0.0292  0.2173
    1DIPC   D2A25290   7.137   4.019   5.047  0.1073  0.0720  0.2640
    1DIPC   D3A25291   7.024   4.403   5.174  0.2159 -0.4106  0.0470
    1DIPC   C4A25292   6.866   4.701   4.876  0.2366 -0.1455  0.0280
    1DIPC   C1B25293   6.709   3.634   4.819 -0.2310  0.0511 -0.0121
    1DIPC   D2B25294   6.529   3.224   4.948  0.2103 -0.0621 -0.1001
    1DIPC   D3B25295   6.564   2.863   5.192 -0.1048  0.0052  0.0615
    1DIPC   C4B25296   6.821   2.880   5.476  0.0585  0.3171 -0.2805
    1DIPC   NC325297  25.031   4.623   2.229 -0.0005 -0.1230  0.0834
    1DIPC   PO425298  25.195   4.719   2.675  0.1669  0.1205 -0.2625
    1DIPC   GL125299  25.243   4.616   3.095  0.0313 -0.0056 -0.0703
    1DIPC   GL225300  25.110   4.343   3.325 -0.0426  0.2971 -0.1129
    1DIPC   C1A25301  25.124   4.835   3.487  0.1545  0.0686  0.1739
    1DIPC   D2A25302  24.971   4.644   3.833  0.1018  0.2070 -0.0806
    1DIPC   D3A25303  25.483   4.397   3.674 -0.1574  0.1635 -0.2416
    1DIPC   C4A25304  25.767   4.538   3.923 -0.0486 -0.2273 -0.4411
    1DIPC   C1B25305  25.025   4.121   3.723 -0.2681  0.0593 -0.2737
    1DIPC   D2B25306  24.977   4.021   4.120 -0.4400 -0.2001 -0.0906
    1DIPC   D3B25307  25.258   4.342   4.177  0.1034  0.0495  0.0388
    1DIPC   C4B25308  25.632   4.172   4.191  0.0011  0.3432 -0.3389
    1DIPC   NC325309  25.335   9.563   2.724 -0.1739 -0.0810 -0.0328
    1DIPC   PO425310  24.973   9.887   2.789  0.0547 -0.1079  0.2546
    1DIPC   GL125311  24.669   9.839   3.211  0.1670 -0.1919 -0.0320
    1DIPC   GL225312  24.430  10.121   3.223 -0.1921  0.2919 -0.2248
    1DIPC   C1A25313  24.803   9.563   3.615  0.1185 -0.0768 -0.0905
    1DIPC   D2A25314  25.140   9.426   3.914 -0.2066 -0.0048  0.1342
    1DIPC   D3A25315  25.477   9.743   4.118  0.0024  0.1701 -0.0112
    1DIPC   C4A25316  25.362  10.064   4.301 -0.1462  0.0121 -0.1796
    1DIPC   C1B25317  24.585  10.577   3.505 -0.1038 -0.0765 -0.0364
    1DIPC   D2B25318  24.558  10.931   3.823 -0.0520  0.0425  0.0182
    1DIPC   D3B25319  24.392  10.590   4.044 -0.2760 -0.1564 -0.0876
    1DIPC   C4B25320  24.351  10.474   4.442 -0.0671  0.2714  0.0171
    1DIPC   NC325321   3.540  23.333   1.946  0.0654 -0.0441 -0.3178
    1DIPC   PO425322   3.826  23.761   2.172 -0.0089 -0.2064  0.1817
    1DIPC   GL125323   4.051  23.758   2.482 -0.1269 -0.1918 -0.1435
    1DIPC   GL225324   3.828  23.813   2.749  0.2334  0.0352 -0.3456
    1DIPC   C1A25325   4.287  23.468   2.876 -0.2736 -0.1686 -0.0858
    1DIPC   D2A25326   4.203  23.357   3.247  0.0548 -0.0833 -0.0539
    1DIPC   D3A25327   4.471  23.345   3.673 -0.1481  0.4462 -0.1816
    1DIPC   C4A25328   4.422  23.091   4.024 -0.1930  0.3047  0.0341
    1DIPC   C1B25329   3.823  24.180   2.874  0.0161  0.0933 -0.0119
    1DIPC   D2B25330   3.924  24.363   3.319 -0.0722 -0.2274 -0.1065
    1DIPC   D3B25331   4.101  24.142   3.660 -0.1947  0.0891  0.2043
    1DIPC   C4B25332   4.295  24.295   4.035  0.0404  0.0630  0.0727
    1DIPC   NC325333   0.830  26.694   2.643 -0.1384 -0.1982 -0.0330
    1DIPC   PO425334   0.828  26.945   2.402 -0.0512 -0.1671  0.1589
    1DIPC   GL125335   0.789  27.147   2.863 -0.1899 -0.0005 -0.0090
    1DIPC   GL225336   0.651  27.405   3.083 -0.1865 -0.0075  0.1382
    1DIPC   C1A25337   0.609  26.922   3.297  0.1084  0.3240 -0.0234
    1DIPC   D2A25338   0.299  26.978   3.577 -0.0721 -0.0201 -0.0245
    1DIPC   D3A25339   0.490  27.113   3.910 -0.1223  0.0951  0.0878
    1DIPC   C4A25340   0.693  27.480   4.003 -0.0843 -0.1523 -0.1101
    1DIPC   C1B25341   0.891  27.447   3.517  0.1550  0.1656  0.1280
    1DIPC   D2B25342   1.306  27.276   3.722 -0.0176  0.1870 -0.1364
    1DIPC   D3B25343   1.282  27.268   4.247 -0.0925 -0.0318 -0.1982
    1DIPC   C4B25344   1.368  27.656   4.533  0.2263 -0.2794  0.1315
    1DIPC   NC325345  21.790  25.793   2.857 -0.3532 -0.1520 -0.0776
    1DIPC   PO425346  21.749  26.171   3.126 -0.1252 -0.3098  0.2253
    1DIPC   GL125347  21.955  26.209   3.483  0.0890 -0.1762  0.2603
    1DIPC   GL225348  22.300  26.206   3.519  0.2927  0.3640  0.1710
    1DIPC   C1A25349  21.848  26.166   3.905  0.1575  0.0581  0.1842
    1DIPC   D2A25350  21.983  26.337   4.377 -0.0036 -0.0535  0.0331
    1DIPC   D3A25351  22.109  25.993   4.624  0.1483 -0.0292  0.2217
    1DIPC   C4A25352  22.449  26.103   4.725  0.3448 -0.0076  0.0907
    1DIPC   C1B25353  22.393  26.055   3.916  0.1624 -0.3376 -0.1496
    1DIPC   D2B25354  22.657  26.001   4.267  0.1213  0.0244 -0.0686
    1DIPC   D3B25355  22.824  25.667   4.486  0.0469 -0.0142 -0.0033
    1DIPC   C4B25356  22.507  25.631   4.661  0.2106 -0.0084 -0.2272
    1DIPC   NC325357   0.811  28.120   3.012  0.0941 -0.1226 -0.0681
    1DIPC   PO425358   0.446  27.838   2.975  0.0820  0.4451 -0.2620
    1DIPC   GL125359   0.442  28.108   3.368 -0.0417 -0.0737 -0.4649
    1DIPC   GL225360   0.159  28.154   3.484 -0.1730  0.2228 -0.2048
    1DIPC   C1A25361   0.401  27.935   3.841  0.0748  0.3804  0.0127
    1DIPC   D2A25362   0.466  27.882   4.340  0.3158  0.0111  0.1897
    1DIPC   D3A25363   0.085  27.645   4.194 -0.2249 -0.2248 -0.0522
    1DIPC   C4A25364  -0.310  27.565   4.419  0.0116 -0.2371  0.2916
    1DIPC   C1B25365  -0.083  28.380   3.724  0.0789 -0.1050  0.0397
    1DIPC   D2B25366  -0.236  28.213   4.031 -0.1545  0.1683  0.0037
    1DIPC   D3B25367  -0.127  28.029   4.477 -0.1199 -0.1133 -0.1256
    1DIPC   C4B25368   0.212  28.155   4.769 -0.0323  0.1868 -0.2259
    1DIPC   NC325369   3.866  28.985   2.994 -0.2067  0.0187  0.3123
    1DIPC   PO425370   4.041  28.792   3.347  0.0727  0.0539 -0.0384
    1DIPC   GL125371   3.996  28.810   3.774 -0.1248 -0.0353 -0.2054
    1DIPC   GL225372   4.284  28.744   4.056  0.1068 -0.0415 -0.0749
    1DIPC   C1A25373   3.802  29.023   4.174  0.1261  0.1077  0.0571
    1DIPC   D2A25374   3.599  29.086   4.580  0.2717 -0.1350 -0.3359
    1DIPC   D3A25375   3.258  29.362   4.699  0.0272 -0.0690 -0.1949
    1DIPC   C4A25376   3.029  29.225   4.529 -0.1102 -0.0446  0.1781
    1DIPC   C1B25377   4.149  28.916   4.490 -0.2388 -0.0591 -0.1541
    1DIPC   D2B25378   4.044  29.228   4.880 -0.0034 -0.2080  0.0866
    1DIPC   D3B25379   4.164  29.655   4.689  0.1800  0.2254 -0.0098
    1DIPC   C4B25380   4.196  29.461   4.251  0.1625 -0.2182 -0.0860
    1DIPC   NC325381  20.995  14.006   2.243 -0.1109 -0.0623  0.2436
    1DIPC   PO425382  21.262  14.267   1.995  0.0194 -0.0799 -0.2188
    1DIPC   GL125383  21.444  14.229   2.343  0.0454  0.1172 -0.3236
    1DIPC   GL225384  21.423  13.924   2.641  0.3169  0.2333 -0.2507
    1DIPC   C1A25385  21.567  14.432   2.735 -0.1162  0.0125 -0.1325
    1DIPC   D2A25386  21.536  14.728   2.899  0.0060  0.0665  0.0016
    1DIPC   D3A25387  21.544  14.963   2.574  0.1556  0.0264 -0.0276
    1DIPC   C4A25388  21.228  15.329   2.549  0.2670 -0.0433 -0.1214
    1DIPC   C1B25389  21.168  13.560   2.788 -0.0136 -0.1017  0.0924
    1DIPC   D2B25390  20.662  13.520   2.673  0.0497 -0.0557  0.0608
    1DIPC   D3B25391  20.552  13.909   2.506 -0.1988 -0.0808 -0.1880
    1DIPC   C4B25392  20.354  14.075   2.872 -0.3168 -0.1590  0.2248
    1DIPC   NC325393  22.726  21.563   2.843 -0.0336 -0.1578  0.0007
    1DIPC   PO425394  23.026  21.457   2.989  0.1514 -0.1080  0.2292
    1DIPC   GL125395  23.026  21.287   3.380  0.3754  0.0830  0.0685
    1DIPC   GL225396  23.264  21.412   3.534 -0.4721  0.1906  0.1267
    1DIPC   C1A25397  23.081  21.136   3.928 -0.0725 -0.0652 -0.2049
    1DIPC   D2A25398  23.225  20.759   4.217 -0.2172  0.1583 -0.0475
    1DIPC   D3A25399  22.982  21.074   4.506 -0.0251 -0.3461  0.1322
    1DIPC   C4A25400  22.929  20.964   4.899 -0.3544 -0.1767 -0.0819
    1DIPC   C1B25401  23.348  21.645   3.863 -0.2464 -0.0137  0.1631
    1DIPC   D2B25402  23.459  21.764   4.308  0.1417 -0.1925  0.2889
    1DIPC   D3B25403  23.266  21.962   4.678  0.0405  0.0386  0.0980
    1DIPC   C4B25404  23.404  22.132   5.002  0.0106  0.0916  0.0774
    1DIPC   NC325405  18.763   2.814   2.734 -0.0461  0.1574  0.3721
    1DIPC   PO425406  18.857   3.221   2.941 -0.0223  0.3547  0.2725
    1DIPC   GL125407  18.952   3.227   3.366  0.3017 -0.0296  0.1392
    1DIPC   GL225408  19.075   2.952   3.469  0.2450 -0.1136 -0.0466
    1DIPC   C1A25409  18.884   3.442   3.859 -0.2655  0.1666  0.1572
    1DIPC   D2A25410  18.784   3.333   4.324 -0.1606 -0.1251 -0.0972
    1DIPC   D3A25411  18.592   3.681   4.293 -0.2461  0.0788 -0.1582
    1DIPC   C4A25412  18.819   3.946   4.125  0.1902  0.1476  0.0334
    1DIPC   C1B25413  18.951   2.872   3.862  0.1735 -0.2769 -0.1002
    1DIPC   D2B25414  18.993   2.766   4.428  0.0975 -0.4087  0.0040
    1DIPC   D3B25415  18.621   2.477   4.547  0.1011  0.2831 -0.0052
    1DIPC   C4B25416  18.367   2.504   4.850  0.0031 -0.0401  0.1272
    1DIPC   NC325417   7.471   3.614   3.677 -0.1635  0.0228 -0.2460
    1DIPC   PO425418   7.318   3.387   3.340 -0.0919  0.1038 -0.0986
    1DIPC   GL125419   7.246   3.169   3.771  0.2741  0.1260  0.0211
    1DIPC   GL225420   7.413   2.845   3.798 -0.2600 -0.0100  0.1255
    1DIPC   C1A25421   7.166   3.117   4.205  0.1635 -0.0272 -0.3442
    1DIPC   D2A25422   6.909   3.210   4.639 -0.2794 -0.4225 -0.0739
    1DIPC   D3A25423   7.168   2.843   4.715  0.0356 -0.0973  0.0236
    1DIPC   C4A25424   7.154   2.654   5.171 -0.1054  0.1858 -0.2915
    1DIPC   C1B25425   7.461   2.768   4.307 -0.0773  0.0063 -0.2324
    1DIPC   D2B25426   7.649   2.760   4.726  0.0646 -0.2121 -0.0247
    1DIPC   D3B25427   7.823   2.743   5.132 -0.1462  0.0034 -0.2499
    1DIPC   C4B25428   7.567   2.749   5.423 -0.0178  0.2289 -0.1495
    1DIPC   NC325429  24.904  17.637   2.444  0.0047  0.0736  0.1455
    1DIPC   PO425430  25.276  17.877   2.547 -0.0681 -0.2891  0.1634
    1DIPC   GL125431  25.148  18.002   2.825  0.0795  0.4348  0.0452
    1DIPC   GL225432  25.244  18.302   2.945  0.0394  0.2836  0.0547
    1DIPC   C1A25433  25.024  17.825   3.247 -0.3574 -0.1775 -0.2385
    1DIPC   D2A25434  24.869  17.739   3.708  0.0206 -0.3200  0.1176
    1DIPC   D3A25435  25.118  17.367   3.921  0.0648 -0.1387 -0.2519
    1DIPC   C4A25436  25.451  17.044   3.847 -0.4349  0.1386  0.0585
    1DIPC   C1B25437  25.526  18.136   3.340  0.3137  0.0245 -0.3551
    1DIPC   D2B25438  25.520  18.389   3.791 -0.0434  0.1921 -0.2742
    1DIPC   D3B25439  25.409  18.253   4.187 -0.1268 -0.4712  0.2853
    1DIPC   C4B25440  25.333  17.806   4.321  0.0038 -0.1081  0.1928
    1DIPC   NC325441  29.813   6.532   3.067  0.0282 -0.0401 -0.2057
    1DIPC   PO425442  29.825   6.088   3.022 -0.0842  0.0823 -0.2141
    1DIPC   GL125443  29.692   6.006   3.446  0.1313  0.3079  0.1961
    1DIPC   GL225444  29.953   5.930   3.618  0.0812  0.0476 -0.2566
    1DIPC   C1A25445  29.462   6.302   3.717  0.0779  0.0475 -0.1055
    1DIPC   D2A25446  29.092   6.287   3.936  0.1416  0.1318 -0.0020
    1DIPC   D3A25447  29.374   6.608   4.140  0.1285  0.0941 -0.0511
    1DIPC   C4A25448  29.363   6.906   4.454 -0.0519  0.0533  0.1217
    1DIPC   C1B25449  30.024   6.181   3.989 -0.0095  0.1044 -0.0163
    1DIPC   D2B25450  30.341   6.230   4.340 -0.2421 -0.1370 -0.0389
    1DIPC   D3B25451  30.653   5.855   4.471 -0.0625 -0.0036  0.0068
    1DIPC   C4B25452  30.488   5.493   4.654 -0.1981  0.1876 -0.1321
    1DIPC   NC325453  23.247   9.843   1.997 -0.1255  0.1061 -0.2047
    1DIPC   PO425454  23.070  10.066   2.337  0.1317 -0.1667  0.1558
    1DIPC   GL125455  23.130  10.154   2.806  0.0900  0.0620 -0.1382
    1DIPC   GL225456  23.103  10.466   2.766  0.0875 -0.2657 -0.0100
    1DIPC   C1A25457  22.868  10.009   3.109 -0.0199  0.0423  0.0502
    1DIPC   D2A25458  22.500   9.909   3.437 -0.0423  0.1816 -0.2341
    1DIPC   D3A25459  22.331   9.692   3.786 -0.1961  0.2097  0.0238
    1DIPC   C4A25460  22.557   9.371   3.831 -0.1636 -0.0893 -0.3215
    1DIPC   C1B25461  23.219  10.497   3.152  0.1114 -0.0488  0.2675
    1DIPC   D2B25462  23.217  10.250   3.501  0.2006  0.1251 -0.4439
    1DIPC   D3B25463  23.596  10.018   3.162 -0.0003 -0.0086  0.0705
    1DIPC   C4B25464  23.979   9.929   3.484  0.1822  0.3136  0.2325
    1DIPC   NC325465  15.158   1.818   3.455  0.2065  0.0427  0.0586
    1DIPC   PO425466  14.848   2.061   3.686 -0.1845  0.0375  0.0104
    1DIPC   GL125467  14.878   1.970   4.060  0.1711  0.0870  0.0407
    1DIPC   GL225468  14.932   1.674   4.154  0.0777 -0.0282  0.1978
    1DIPC   C1A25469  14.785   2.033   4.515 -0.1736  0.2151  0.1711
    1DIPC   D2A25470  14.871   1.786   4.930 -0.4000  0.1186  0.1174
    1DIPC   D3A25471  14.655   1.426   5.236  0.3191  0.1513 -0.2498
    1DIPC   C4A25472  14.383   1.171   5.092 -0.1325  0.2281 -0.0026
    1DIPC   C1B25473  15.012   1.486   4.478 -0.2722 -0.2036 -0.3414
    1DIPC   D2B25474  15.049   1.317   4.942 -0.1598  0.0405 -0.2039
    1DIPC   D3B25475  15.489   1.258   5.131  0.0091  0.2515  0.2173
    1DIPC   C4B25476  15.672   0.845   5.318 -0.1701  0.1640  0.2437
    1DIPC   NC325477  11.652  22.139   1.910 -0.0425  0.0747  0.1897
    1DIPC   PO425478  11.354  22.534   1.857  0.4137  0.0112  0.0099
    1DIPC   GL125479  11.672  22.536   2.258 -0.1919 -0.3281 -0.1425
    1DIPC   GL225480  11.946  22.746   2.395 -0.1389  0.1077 -0.1120
    1DIPC   C1A25481  11.960  22.281   2.551 -0.2147 -0.0401  0.0474
    1DIPC   D2A25482  11.938  22.073   2.956 -0.3611  0.1718  0.0757
    1DIPC   D3A25483  11.832  22.194   3.399 -0.1788 -0.0383 -0.1136
    1DIPC   C4A25484  11.996  22.171   3.795 -0.1407  0.0741  0.2726
    1DIPC   C1B25485  12.105  22.775   2.780  0.1138  0.1787 -0.0921
    1DIPC   D2B25486  12.109  22.589   3.182  0.0735  0.3654 -0.0283
    1DIPC   D3B25487  12.144  22.632   3.600  0.1310  0.1226 -0.0721
    1DIPC   C4B25488  11.895  22.982   3.749 -0.3409  0.1108  0.2095
    1DIPC   NC325489  24.705  19.897   2.591  0.0568  0.1354  0.3193
    1DIPC   PO425490  24.543  19.521   2.451 -0.0675 -0.3316  0.1591
    1DIPC   GL125491  24.514  19.581   2.929  0.1947  0.1102  0.1121
    1DIPC   GL225492  24.671  19.451   3.086 -0.1947 -0.1302 -0.1220
    1DIPC   C1A25493  24.446  19.750   3.393 -0.1537  0.1344  0.2534
    1DIPC   D2A25494  24.255  19.642   3.751  0.1686  0.1067  0.1217
    1DIPC   D3A25495  24.705  19.650   3.829  0.1033  0.3761 -0.2644
    1DIPC   C4A25496  24.902  19.679   4.253 -0.0062 -0.3104 -0.2529
    1DIPC   C1B25497  24.926  19.439   3.428  0.0910 -0.1827 -0.1351
    1DIPC   D2B25498  25.234  19.183   3.592 -0.1497 -0.1826 -0.2628
    1DIPC   D3B25499  25.155  19.199   4.046 -0.1405  0.4449 -0.0838
    1DIPC   C4B25500  25.385  19.471   4.358 -0.0703  0.1094  0.0621
    1DIPC   NC325501   4.602  26.401   2.930  0.0214 -0.1641 -0.2849
    1DIPC   PO425502   5.051  26.521   2.926 -0.1275 -0.3571 -0.0497
    1DIPC   GL125503   5.225  26.382   3.303  0.1011 -0.0829  0.1059
    1DIPC   GL225504   4.997  26.638   3.432  0.2325 -0.1061 -0.1326
    1DIPC   C1A25505   5.185  26.108   3.596  0.1449 -0.0037  0.0772
    1DIPC   D2A25506   4.834  25.952   3.814 -0.1166 -0.1176 -0.0831
    1DIPC   D3A25507   4.875  26.058   4.285  0.2157 -0.1591  0.0200
    1DIPC   C4A25508   4.409  26.043   4.469 -0.3422  0.0528  0.2138
    1DIPC   C1B25509   4.626  26.626   3.682 -0.2164 -0.0529 -0.0815
    1DIPC   D2B25510   4.207  26.664   3.861 -0.2426  0.0873  0.0164
    1DIPC   D3B25511   4.104  26.432   4.290 -0.0400  0.0952 -0.0600
    1DIPC   C4B25512   4.373  26.485   4.717 -0.0158  0.1325  0.3104
    1DIPC   NC325513  15.777   9.515   2.398  0.0936  0.0108 -0.1518
    1DIPC   PO425514  15.576   9.215   2.165 -0.0702  0.0996 -0.0292
    1DIPC   GL125515  15.503   8.908   2.541  0.1026 -0.1789  0.0824
    1DIPC   GL225516  15.439   9.113   2.719 -0.0379  0.2652  0.1776
    1DIPC   C1A25517  15.737   8.742   3.062 -0.0727 -0.1984  0.0965
    1DIPC   D2A25518  15.700   9.005   3.373  0.0774 -0.0928  0.0918
    1DIPC   D3A25519  15.920   8.724   3.524 -0.0817 -0.1591  0.1473
    1DIPC   C4A25520  16.180   8.867   3.848 -0.0195 -0.0731  0.1119
    1DIPC   C1B25521  15.392   9.265   3.093  0.0030  0.2762  0.1851
    1DIPC   D2B25522  15.479   9.500   3.516  0.2898  0.1584 -0.0282
    1DIPC   D3B25523  15.248   9.195   3.669  0.0022  0.1541  0.1562
    1DIPC   C4B25524  15.249   9.234   4.088 -0.1492 -0.0345 -0.1969
    1DIPC   NC325525   7.365  24.255   1.971  0.3738  0.0780 -0.1248
    1DIPC   PO425526   7.100  24.412   2.325  0.2535  0.2971 -0.1500
    1DIPC   GL125527   6.953  24.437   2.703 -0.0240 -0.2977  0.0764
    1DIPC   GL225528   6.901  24.134   2.942 -0.0370 -0.2713  0.1650
    1DIPC   C1A25529   6.891  24.778   2.976  0.2305 -0.0304  0.0448
    1DIPC   D2A25530   6.810  25.060   3.310  0.0624 -0.0845 -0.2926
    1DIPC   D3A25531   6.719  24.751   3.594 -0.0233 -0.0176 -0.0780
    1DIPC   C4A25532   6.861  24.635   3.955 -0.0689  0.1883  0.0442
    1DIPC   C1B25533   6.920  24.150   3.343 -0.1579  0.0045  0.0223
    1DIPC   D2B25534   7.120  24.087   3.730  0.0176  0.1954  0.1875
    1DIPC   D3B25535   7.529  24.041   3.973 -0.0873  0.3637 -0.2426
    1DIPC   C4B25536   7.948  24.017   3.861  0.0140 -0.1164 -0.3299
    1DIPC   NC325537  10.898  28.255   3.172  0.2405 -0.0718  0.2156
    1DIPC   PO425538  11.326  28.252   3.291  0.1001 -0.1136  0.0521
    1DIPC   GL125539  11.146  28.153   3.649  0.1303 -0.2589  0.1139
    1DIPC   GL225540  10.850  28.064   3.621 -0.0666  0.0870 -0.0927
    1DIPC   C1A25541  10.925  28.132   4.116 -0.1639  0.2202  0.2647
    1DIPC   D2A25542  10.692  27.861   4.456 -0.4822  0.1301 -0.0526
    1DIPC   D3A25543  10.633  27.728   4.092  0.0766 -0.0268  0.2152
    1DIPC   C4A25544  10.562  27.347   4.140  0.0319 -0.0712 -0.2472
    1DIPC   C1B25545  10.703  27.554   3.646  0.0387 -0.1288  0.2121
    1DIPC   D2B25546  10.909  27.291   3.578  0.2839  0.0210 -0.2712
    1DIPC   D3B25547  11.025  27.344   4.001  0.1204  0.0617 -0.0481
    1DIPC   C4B25548  11.104  27.648   4.305  0.0904 -0.2824  0.1478
    1DIPC   NC325549  26.303   1.701   3.160 -0.0652 -0.0311 -0.1560
    1DIPC   PO425550  26.740   1.928   3.011  0.1908  0.2836  0.0757
    1DIPC   GL125551  26.871   1.973   3.428  0.0565 -0.0867  0.3579
    1DIPC   GL225552  26.742   2.217   3.697  0.3816  0.2098 -0.1412
    1DIPC   C1A25553  27.094   1.808   3.789 -0.0556 -0.3399 -0.0078
    1DIPC   D2A25554  27.223   1.505   4.086  0.2116  0.1188  0.0101
    1DIPC   D3A25555  26.878   1.618   4.376  0.0769 -0.2950 -0.2256
    1DIPC   C4A25556  26.776   2.098   4.480 -0.0556  0.2555 -0.0007
    1DIPC   C1B25557  26.599   1.917   3.979 -0.1977  0.1178 -0.0566
    1DIPC   D2B25558  26.371   1.586   4.203 -0.0941 -0.2680 -0.1038
    1DIPC   D3B25559  26.394   1.800   4.495 -0.3047  0.3090 -0.0654
    1DIPC   C4B25560  26.181   1.919   4.819 -0.0236  0.0391 -0.2148
    1DIPC   NC325561   3.136  24.278   1.730 -0.1529 -0.2207 -0.0537
    1DIPC   PO425562   3.451  24.531   1.987 -0.0100 -0.0499 -0.2118
    1DIPC   GL125563   3.505  24.377   2.455  0.2039  0.2552 -0.0776
    1DIPC   GL225564   3.433  24.523   2.734 -0.2807  0.0636 -0.0827
    1DIPC   C1A25565   3.297  24.004   2.704 -0.0375  0.4356 -0.2744
    1DIPC   D2A25566   3.048  23.991   3.029  0.1439 -0.3819  0.0521
    1DIPC   D3A25567   3.450  24.037   3.184  0.1566 -0.0148 -0.2382
    1DIPC   C4A25568   3.551  24.247   3.566  0.0552 -0.0825 -0.0277
    1DIPC   C1B25569   3.075  24.504   2.752 -0.1562 -0.0289 -0.0238
    1DIPC   D2B25570   2.694  24.542   2.800  0.0714 -0.2321 -0.1737
    1DIPC   D3B25571   2.456  24.809   2.671 -0.1514  0.0902  0.0423
    1DIPC   C4B25572   2.102  24.967   2.872 -0.0175  0.1698  0.2592
    1DIPC   NC325573   6.866  29.652   2.904 -0.0296  0.2755  0.0889
    1DIPC   PO425574   6.597  29.698   3.323 -0.0981 -0.1671  0.1064
    1DIPC   GL125575   6.672  29.897   3.787 -0.5534 -0.2249 -0.0350
    1DIPC   GL225576   7.016  29.897   3.757  0.1615 -0.1445  0.2850
    1DIPC   C1A25577   6.694  29.939   4.156 -0.3018 -0.1356  0.0109
    1DIPC   D2A25578   6.856  30.029   4.505 -0.0825  0.3769  0.1955
    1DIPC   D3A25579   6.647  29.925   4.813  0.2773  0.1302  0.0230
    1DIPC   C4A25580   6.233  29.827   4.881 -0.1477 -0.0214  0.0384
    1DIPC   C1B25581   7.237  29.914   4.186  0.0532  0.0317 -0.0625
    1DIPC   D2B25582   7.419  29.927   4.504 -0.1059  0.0000 -0.1342
    1DIPC   D3B25583   7.149  29.591   4.591  0.0053 -0.4672  0.0003
    1DIPC   C4B25584   6.982  29.427   5.058 -0.0217 -0.0897 -0.1927
    1DIPC   NC325585  28.648   7.063   2.230 -0.1955  0.1522 -0.1569
    1DIPC   PO425586  28.928   7.248   2.357 -0.0902  0.0658 -0.1214
    1DIPC   GL125587  29.096   7.203   2.839  0.3801  0.1079  0.0258
    1DIPC   GL225588  29.355   7.341   3.088 -0.0210  0.3221  0.0417
    1DIPC   C1A25589  29.012   7.044   3.374  0.2178  0.0096  0.4954
    1DIPC   D2A25590  29.188   6.894   3.771  0.3117  0.0817  0.0027
    1DIPC   D3A25591  28.889   6.884   4.108 -0.0431 -0.1719 -0.1461
    1DIPC   C4A25592  28.772   7.321   4.309  0.1075 -0.1612  0.0497
    1DIPC   C1B25593  29.434   7.313   3.534  0.3653  0.0832 -0.2176
    1DIPC   D2B25594  29.620   7.114   3.912  0.3370  0.1190  0.0305
    1DIPC   D3B25595  29.217   7.267   4.134  0.2251 -0.1746  0.0778
    1DIPC   C4B25596  28.909   7.357   3.822 -0.1910  0.1961  0.0392
    1DIPC   NC325597  28.888  18.120   2.578  0.1312 -0.1614 -0.3330
    1DIPC   PO425598  28.618  18.454   2.651 -0.1170  0.2397  0.1000
    1DIPC   GL125599  28.494  18.621   2.960  0.0444 -0.0353  0.1520
    1DIPC   GL225600  28.713  18.864   3.101 -0.2160  0.0029  0.1476
    1DIPC   C1A25601  28.463  18.471   3.474  0.2489 -0.1069  0.0054
    1DIPC   D2A25602  28.269  18.372   3.912  0.0768  0.2166 -0.2893
    1DIPC   D3A25603  28.421  18.807   3.992  0.1807 -0.2222 -0.1824
    1DIPC   C4A25604  28.580  18.902   4.350 -0.0138 -0.0504 -0.4481
    1DIPC   C1B25605  28.798  18.919   3.608 -0.1288 -0.1537  0.0925
    1DIPC   D2B25606  28.910  18.995   3.991  0.0371  0.0448 -0.1636
    1DIPC   D3B25607  29.080  18.830   4.174 -0.0415  0.2569  0.0899
    1DIPC   C4B25608  29.427  18.752   4.445  0.0591 -0.0510  0.0914
    1DIPC   NC325609  25.805   4.630   3.082  0.0580  0.0090 -0.2722
    1DIPC   PO425610  26.096   4.698   3.244 -0.3838  0.0586 -0.1666
    1DIPC   GL125611  26.222   4.688   3.660  0.0506 -0.0931 -0.0292
    1DIPC   GL225612  26.562   4.703   3.804 -0.1533  0.2360 -0.2997
    1DIPC   C1A25613  26.081   5.008   3.902 -0.3005  0.2738 -0.1193
    1DIPC   D2A25614  26.104   5.078   4.426 -0.0077 -0.0243  0.0051
    1DIPC   D3A25615  25.700   5.020   4.663 -0.3953 -0.0659 -0.1148
    1DIPC   C4A25616  25.389   5.324   4.465 -0.2360 -0.3606 -0.0175
    1DIPC   C1B25617  26.467   4.812   4.197 -0.0095  0.1075 -0.0154
    1DIPC   D2B25618  26.329   4.744   4.678 -0.0589  0.0353  0.1154
    1DIPC   D3B25619  26.500   5.134   4.772  0.1545  0.0158 -0.3453
    1DIPC   C4B25620  26.872   5.179   4.886 -0.0439  0.1599 -0.0932
    1DIPC   NC325621  26.045  25.615   2.863 -0.3619 -0.2265 -0.0114
    1DIPC   PO425622  25.805  25.798   3.093  0.3348 -0.1007  0.0450
    1DIPC   GL125623  25.799  25.638   3.507 -0.1444  0.1798 -0.1105
    1DIPC   GL225624  25.537  25.569   3.577 -0.2325 -0.0409  0.5079
    1DIPC   C1A25625  25.944  25.672   3.952 -0.2538 -0.0201  0.2904
    1DIPC   D2A25626  25.841  25.730   4.288  0.1828 -0.2688  0.1196
    1DIPC   D3A25627  25.925  25.523   4.617 -0.0201  0.1910 -0.0299
    1DIPC   C4A25628  25.696  25.369   4.857 -0.0549  0.2425  0.1102
    1DIPC   C1B25629  25.394  25.465   3.973  0.0223  0.0787  0.3174
    1DIPC   D2B25630  25.373  25.411   4.474 -0.1012 -0.0223  0.0780
    1DIPC   D3B25631  25.115  25.060   4.503 -0.1020  0.0825 -0.3023
    1DIPC   C4B25632  25.121  24.651   4.626 -0.0082 -0.2025 -0.0930
    1DIPC   NC325633  11.756   6.276   3.512  0.0615  0.2263  0.2636
    1DIPC   PO425634  12.077   6.070   3.516  0.1606  0.0359 -0.2441
    1DIPC   GL125635  12.348   5.807   3.811  0.3125 -0.0010 -0.0543
    1DIPC   GL225636  12.540   5.553   3.685 -0.4098  0.3656 -0.0331
    1DIPC   C1A25637  12.468   5.901   4.211 -0.0160 -0.2328  0.1352
    1DIPC   D2A25638  12.571   5.825   4.672  0.3489 -0.0734  0.0029
    1DIPC   D3A25639  12.656   6.334   4.770 -0.0555 -0.2160 -0.0528
    1DIPC   C4A25640  12.460   6.658   4.491 -0.2410 -0.0094 -0.1721
    1DIPC   C1B25641  12.919   5.630   3.907  0.0264  0.0229 -0.0300
    1DIPC   D2B25642  12.980   5.814   4.358  0.0119  0.0866  0.0092
    1DIPC   D3B25643  13.187   5.984   4.437 -0.0255  0.2039 -0.0105
    1DIPC   C4B25644  13.385   5.932   4.895  0.0308  0.3584 -0.0234
    1DIPC   NC325645  15.541   6.162   2.464  0.1224 -0.0409  0.0384
    1DIPC   PO425646  15.775   5.782   2.615  0.0097 -0.0478  0.0825
    1DIPC   GL125647  16.076   5.845   3.070 -0.0808  0.2390 -0.0243
    1DIPC   GL225648  15.942   6.110   3.319  0.1941 -0.0767  0.2006
    1DIPC   C1A25649  16.187   5.563   3.417 -0.0050 -0.0194 -0.1749
    1DIPC   D2A25650  16.141   5.354   3.877  0.0203 -0.1106  0.1458
    1DIPC   D3A25651  16.309   5.797   3.838 -0.0234  0.0146 -0.0548
    1DIPC   C4A25652  16.296   6.120   4.199  0.0568  0.0220  0.0897
    1DIPC   C1B25653  16.222   6.269   3.718  0.1313 -0.2442 -0.0281
    1DIPC   D2B25654  16.662   6.475   3.910  0.0728 -0.0290  0.1057
    1DIPC   D3B25655  16.616   6.571   4.353  0.0127  0.1846  0.2142
    1DIPC   C4B25656  16.692   6.154   4.482  0.2221 -0.1548 -0.1426
    1DIPC   NC325657   3.444   6.775   3.104  0.1208 -0.0293  0.1155
    1DIPC   PO425658   3.336   6.478   3.414 -0.0975  0.0698 -0.1765
    1DIPC   GL125659   3.133   6.231   3.709 -0.0835 -0.0451  0.0587
    1DIPC   GL225660   2.892   6.071   3.739 -0.0446  0.3321  0.1149
    1DIPC   C1A25661   3.275   6.262   4.110  0.1012  0.1698  0.0617
    1DIPC   D2A25662   3.653   6.362   4.327 -0.0932  0.1266 -0.0625
    1DIPC   D3A25663   3.398   6.376   4.622  0.1276 -0.2094 -0.1328
    1DIPC   C4A25664   3.644   6.542   5.007 -0.0437 -0.0137 -0.2438
    1DIPC   C1B25665   2.846   6.085   4.224  0.2785 -0.3275 -0.0091
    1DIPC   D2B25666   3.164   5.976   4.540 -0.0833  0.1896 -0.0324
    1DIPC   D3B25667   3.430   5.681   4.656 -0.2159 -0.2599  0.0118
    1DIPC   C4B25668   3.495   5.419   4.994 -0.0784 -0.1031  0.0195
    1DIPC   NC325669  27.507  11.822   2.048 -0.0090  0.2805 -0.2682
    1DIPC   PO425670  27.291  11.945   2.455  0.0187 -0.0317  0.0095
    1DIPC   GL125671  27.108  12.113   2.851 -0.1553 -0.0675  0.2100
    1DIPC   GL225672  26.871  12.305   2.881  0.1567 -0.2410 -0.0634
    1DIPC   C1A25673  26.951  12.061   3.312 -0.2431 -0.2624  0.0006
    1DIPC   D2A25674  26.816  12.246   3.640 -0.2329 -0.1698 -0.1435
    1DIPC   D3A25675  26.462  12.273   3.897  0.0833  0.0389  0.3808
    1DIPC   C4A25676  26.387  12.334   4.308  0.2107 -0.0546  0.1505
    1DIPC   C1B25677  26.620  12.567   3.105  0.0949 -0.1296 -0.4492
    1DIPC   D2B25678  26.308  12.571   3.480  0.0778  0.0956  0.0658
    1DIPC   D3B25679  26.061  12.371   3.106  0.2320 -0.0548 -0.1479
    1DIPC   C4B25680  26.268  12.070   2.871 -0.1199  0.0967  0.0203
    1DIPC   NC325681   3.258  15.285   2.247  0.1232  0.1162 -0.0494
    1DIPC   PO425682   3.474  14.903   2.369 -0.1454  0.0333  0.0154
    1DIPC   GL125683   3.470  15.198   2.769  0.0696 -0.1377 -0.1018
    1DIPC   GL225684   3.661  15.352   2.877 -0.1695  0.2348 -0.1014
    1DIPC   C1A25685   3.331  15.180   3.274  0.0226  0.1883  0.1714
    1DIPC   D2A25686   3.275  14.932   3.533  0.0476  0.0172  0.2181
    1DIPC   D3A25687   3.548  14.628   3.776  0.0671  0.1420 -0.3354
    1DIPC   C4A25688   3.803  14.777   4.172 -0.3684  0.1532 -0.1368
    1DIPC   C1B25689   3.546  15.618   3.260 -0.2193  0.2343 -0.1552
    1DIPC   D2B25690   3.135  15.829   3.356 -0.0605  0.1840 -0.2278
    1DIPC   D3B25691   3.157  16.131   3.732  0.1112 -0.3039  0.1759
    1DIPC   C4B25692   3.390  16.131   4.106 -0.1715  0.1146 -0.0140
    1DIPC   NC325693  23.104   1.080   3.281  0.0930  0.1884 -0.2762
    1DIPC   PO425694  23.032   1.462   3.214 -0.0073 -0.3075 -0.1433
    1DIPC   GL125695  23.216   1.470   3.609  0.0199  0.2725  0.0485
    1DIPC   GL225696  23.037   1.273   3.740 -0.1102  0.0540 -0.2051
    1DIPC   C1A25697  23.445   1.387   4.058  0.1014  0.1985 -0.3872
    1DIPC   D2A25698  23.873   1.163   4.300  0.0120  0.0107  0.3026
    1DIPC   D3A25699  24.269   0.945   4.133 -0.1635  0.0050  0.3128
    1DIPC   C4A25700  24.221   0.524   4.213 -0.0111 -0.3661 -0.0147
    1DIPC   C1B25701  22.955   1.399   4.187  0.0144  0.2852 -0.3667
    1DIPC   D2B25702  23.033   1.387   4.670  0.2371  0.3615  0.0985
    1DIPC   D3B25703  22.718   1.295   4.871 -0.1163 -0.0149 -0.0442
    1DIPC   C4B25704  22.722   1.345   5.299  0.4489  0.1236 -0.1215
    1DIPC   NC325705   9.312   3.634   3.741 -0.0736  0.1113 -0.0179
    1DIPC   PO425706   9.759   3.585   3.815  0.0992 -0.1082 -0.0415
    1DIPC   GL125707   9.578   3.569   4.201  0.1308  0.2380 -0.0829
    1DIPC   GL225708   9.340   3.438   4.451 -0.2859  0.0541 -0.2465
    1DIPC   C1A25709   9.611   3.770   4.605 -0.0919  0.2646 -0.2739
    1DIPC   D2A25710   9.675   4.099   4.885 -0.0243  0.0678  0.0839
    1DIPC   D3A25711   9.253   4.026   4.884 -0.3354 -0.0841  0.0591
    1DIPC   C4A25712   8.973   3.697   4.724  0.2079 -0.0111 -0.1583
    1DIPC   C1B25713   9.190   3.043   4.415 -0.0387 -0.0468  0.0822
    1DIPC   D2B25714   9.123   2.662   4.517 -0.0509 -0.2492 -0.1690
    1DIPC   D3B25715   8.797   2.370   4.468  0.2014 -0.0645 -0.0473
    1DIPC   C4B25716   8.290   2.338   4.294  0.2362  0.3306  0.1230
    1DIPC   NC325717  10.038   4.036   3.790  0.1317  0.1248 -0.1005
    1DIPC   PO425718   9.544   4.154   3.647 -0.0022 -0.2864  0.1509
    1DIPC   GL125719   9.565   4.080   4.068 -0.0566  0.3732  0.2490
    1DIPC   GL225720   9.832   4.221   4.198 -0.1000  0.0225 -0.4574
    1DIPC   C1A25721   9.433   4.240   4.489  0.0985  0.0590  0.1736
    1DIPC   D2A25722   9.433   4.621   4.675  0.1795 -0.0929  0.2010
    1DIPC   D3A25723   9.643   4.784   4.938  0.2494 -0.1446 -0.1842
    1DIPC   C4A25724   9.454   4.979   5.288 -0.0419 -0.1486 -0.2310
    1DIPC   C1B25725   9.919   4.435   4.509  0.2066 -0.2105 -0.3661
    1DIPC   D2B25726  10.000   4.420   4.980  0.3309 -0.2066 -0.1045
    1DIPC   D3B25727   9.968   4.749   5.382 -0.2278 -0.2406 -0.0474
    1DIPC   C4B25728   9.952   4.674   5.772  0.0626  0.1452  0.1509
    1DIPC   NC325729  27.594  25.847   2.994 -0.0540 -0.0911 -0.0317
    1DIPC   PO425730  27.473  25.507   3.265  0.0083 -0.0069  0.1575
    1DIPC   GL125731  27.601  25.723   3.502  0.0715 -0.1704  0.3655
    1DIPC   GL225732  27.732  26.009   3.431  0.5126 -0.0631  0.1284
    1DIPC   C1A25733  27.650  25.756   3.941 -0.4807 -0.3033  0.1435
    1DIPC   D2A25734  27.954  25.813   4.287 -0.1952 -0.3227  0.1088
    1DIPC   D3A25735  28.292  25.703   4.369  0.0020 -0.1943  0.0073
    1DIPC   C4A25736  28.556  25.492   4.139 -0.2627  0.0087  0.0606
    1DIPC   C1B25737  27.927  26.199   3.855  0.0815  0.2081 -0.0307
    1DIPC   D2B25738  27.928  26.387   4.270  0.1613 -0.1768 -0.1688
    1DIPC   D3B25739  28.394  26.302   4.363  0.0192  0.0975  0.1009
    1DIPC   C4B25740  28.876  26.277   4.058  0.1161 -0.2106  0.1810
    1DIPC   NC325741  28.093  19.419   3.198 -0.0577  0.0188  0.2411
    1DIPC   PO425742  27.665  19.275   3.075  0.0499 -0.2734 -0.2514
    1DIPC   GL125743  27.783  19.171   3.495  0.1403 -0.1124  0.1516
    1DIPC   GL225744  27.728  18.854   3.542 -0.1853 -0.0665 -0.0437
    1DIPC   C1A25745  27.962  19.091   3.938  0.1135 -0.2345  0.1115
    1DIPC   D2A25746  28.083  18.963   4.338 -0.2301 -0.1540 -0.1026
    1DIPC   D3A25747  27.880  19.168   4.537 -0.0786 -0.0118  0.3948
    1DIPC   C4A25748  27.728  19.615   4.494  0.0803  0.1837  0.0511
    1DIPC   C1B25749  28.253  18.879   3.520 -0.0763 -0.0909 -0.1311
    1DIPC   D2B25750  28.481  19.231   3.406  0.1645  0.0451 -0.1295
    1DIPC   D3B25751  28.184  19.450   3.651 -0.1157  0.1599 -0.0447
    1DIPC   C4B25752  28.398  19.783   3.865 -0.3076 -0.1958 -0.1144
    1DIPC   NC325753  17.319   4.439   1.924  0.1751 -0.0823  0.0617
    1DIPC   PO425754  17.577   4.285   2.244 -0.1525  0.0673  0.2079
    1DIPC   GL125755  17.479   3.932   2.553  0.1938  0.2917 -0.1194
    1DIPC   GL225756  17.186   3.679   2.669  0.4836  0.1465 -0.1491
    1DIPC   C1A25757  17.633   3.783   2.934  0.0227  0.0968  0.2880
    1DIPC   D2A25758  18.016   3.586   3.097  0.0771 -0.1196  0.1896
    1DIPC   D3A25759  17.642   3.447   3.345 -0.2794  0.1218  0.0181
    1DIPC   C4A25760  17.604   2.964   3.292 -0.3417  0.1298 -0.1665
    1DIPC   C1B25761  17.095   3.621   3.061 -0.0894  0.0559 -0.1158
    1DIPC   D2B25762  16.963   3.438   3.432 -0.1261 -0.2129  0.0229
    1DIPC   D3B25763  17.263   3.604   3.664 -0.2542  0.0344  0.0680
    1DIPC   C4B25764  17.549   3.887   3.488  0.1823 -0.0220 -0.1006
    1DIPC   NC325765   7.083  10.421   3.113 -0.0637  0.1587  0.1756
    1DIPC   PO425766   6.889  10.063   3.331 -0.0558  0.3623  0.0836
    1DIPC   GL125767   6.849  10.031   3.748 -0.1408 -0.3252  0.1809
    1DIPC   GL225768   6.702  10.354   3.731 -0.0972  0.0734  0.0863
    1DIPC   C1A25769   6.747  10.022   4.199  0.2157  0.1608  0.4137
    1DIPC   D2A25770   6.887   9.907   4.588 -0.0445 -0.0378 -0.0586
    1DIPC   D3A25771   7.377   9.896   4.583 -0.0122  0.1278  0.2101
    1DIPC   C4A25772   7.693   9.507   4.555 -0.0004  0.1088 -0.1438
    1DIPC   C1B25773   6.769  10.566   4.177 -0.0061 -0.0706  0.0386
    1DIPC   D2B25774   6.848  10.685   4.598 -0.2780 -0.0013  0.1851
    1DIPC   D3B25775   6.726  11.025   4.311  0.1592 -0.1131  0.0238
    1DIPC   C4B25776   6.326  10.957   4.274 -0.1492  0.0156 -0.0662
    1DIPC   NC325777  19.820  23.902   3.314  0.0637  0.1479 -0.1213
    1DIPC   PO425778  19.669  24.360   3.280 -0.1101 -0.1029 -0.2924
    1DIPC   GL125779  19.806  24.456   3.672  0.0235 -0.1794 -0.1941
    1DIPC   GL225780  19.445  24.572   3.810 -0.0736  0.2143 -0.1437
    1DIPC   C1A25781  20.147  24.611   4.001 -0.0162 -0.3150  0.1619
    1DIPC   D2A25782  20.135  24.903   4.419 -0.1452 -0.2083 -0.0601
    1DIPC   D3A25783  19.856  24.692   4.734  0.1455 -0.2088  0.2326
    1DIPC   C4A25784  19.786  24.282   4.842  0.1326  0.2147  0.1564
    1DIPC   C1B25785  19.273  24.619   4.191  0.0989  0.1602  0.1606
    1DIPC   D2B25786  19.311  24.395   4.613  0.3813 -0.0692  0.1100
    1DIPC   D3B25787  19.204  24.570   4.952  0.0240  0.4286  0.0200
    1DIPC   C4B25788  19.464  24.963   5.061  0.1423  0.2696  0.0030
    1DIPC   NC325789   7.421  16.484   2.275 -0.2885 -0.2489  0.1099
    1DIPC   PO425790   6.980  16.527   2.457  0.0532 -0.0932 -0.0615
    1DIPC   GL125791   7.114  16.588   2.873 -0.0865  0.1768 -0.1138
    1DIPC   GL225792   6.971  16.370   3.003  0.0133 -0.2374  0.4006
    1DIPC   C1A25793   6.941  16.818   3.208 -0.4116  0.0825 -0.1551
    1DIPC   D2A25794   6.893  16.814   3.742  0.1456 -0.0290  0.2292
    1DIPC   D3A25795   7.220  17.009   3.573  0.1114 -0.1266 -0.2383
    1DIPC   C4A25796   7.462  17.195   3.999 -0.0258  0.0546 -0.2469
    1DIPC   C1B25797   6.882  16.290   3.454 -0.0753  0.0737 -0.0316
    1DIPC   D2B25798   7.316  16.069   3.605 -0.0275 -0.2004 -0.0348
    1DIPC   D3B25799   7.103  16.393   3.917 -0.0199  0.0343 -0.1929
    1DIPC   C4B25800   7.152  16.419   4.345  0.2603  0.1552  0.1357
    1DIPC   NC325801   7.383  29.622   2.817 -0.1681 -0.1441 -0.0670
    1DIPC   PO425802   7.458  29.842   3.159  0.0408  0.1988 -0.2554
    1DIPC   GL125803   7.482  29.986   3.585 -0.3752  0.0682  0.3918
    1DIPC   GL225804   7.488  29.659   3.864 -0.0239 -0.0165 -0.1675
    1DIPC   C1A25805   7.316  30.279   3.833  0.2686 -0.0717 -0.1046
    1DIPC   D2A25806   7.093  30.503   4.024 -0.0937 -0.0165 -0.1708
    1DIPC   D3A25807   6.690  30.406   4.130 -0.2325  0.0935 -0.0240
    1DIPC   C4A25808   6.284  30.148   3.886 -0.0577 -0.0616 -0.2981
    1DIPC   C1B25809   7.552  29.481   4.306  0.1679  0.0719  0.1107
    1DIPC   D2B25810   7.588  29.325   4.741  0.1008  0.0022  0.1359
    1DIPC   D3B25811   7.454  29.675   4.959 -0.0552 -0.2037  0.0492
    1DIPC   C4B25812   7.155  30.039   4.892  0.0950 -0.1844 -0.4914
    1DIPC   NC325813   7.059  26.380   2.505 -0.0965  0.2841  0.1598
    1DIPC   PO425814   7.421  26.123   2.648  0.0573  0.3086 -0.0213
    1DIPC   GL125815   7.471  25.770   2.954  0.0691 -0.0115  0.0180
    1DIPC   GL225816   7.230  25.740   3.198 -0.0257  0.2117  0.0917
    1DIPC   C1A25817   7.756  25.481   3.247  0.0142 -0.2831  0.1176
    1DIPC   D2A25818   7.948  25.045   3.312  0.6195 -0.0942  0.2031
    1DIPC   D3A25819   7.662  24.959   3.625  0.1944  0.4349  0.0533
    1DIPC   C4A25820   7.589  25.099   4.085 -0.3237 -0.1168 -0.0220
    1DIPC   C1B25821   7.507  25.749   3.579 -0.0790  0.0414 -0.0785
    1DIPC   D2B25822   7.462  25.502   3.803 -0.2542  0.0246 -0.1537
    1DIPC   D3B25823   7.030  25.574   3.609 -0.2390 -0.2790  0.1776
    1DIPC   C4B25824   6.903  25.976   3.454  0.2460 -0.1411 -0.0379
    1DIPC   NC325825   0.575  24.053   2.415 -0.1709 -0.0065  0.0852
    1DIPC   PO425826   0.315  24.374   2.563  0.1357  0.0796 -0.0402
    1DIPC   GL125827   0.166  24.268   2.989 -0.2153 -0.4968  0.0194
    1DIPC   GL225828   0.034  24.577   3.196  0.1526 -0.0757 -0.2377
    1DIPC   C1A25829   0.164  24.088   3.385  0.2449  0.0288 -0.0234
    1DIPC   D2A25830   0.187  24.135   3.808  0.0723 -0.2014  0.2245
    1DIPC   D3A25831  -0.129  24.190   3.916 -0.0833  0.0290 -0.1378
    1DIPC   C4A25832  -0.327  24.397   3.610  0.1797 -0.2558 -0.0062
    1DIPC   C1B25833   0.221  24.560   3.577 -0.1444  0.1316 -0.2408
    1DIPC   D2B25834   0.032  24.639   4.055 -0.0746 -0.1890  0.1608
    1DIPC   D3B25835   0.264  24.971   4.162  0.1739 -0.0394  0.1444
    1DIPC   C4B25836   0.054  25.316   4.371 -0.1111  0.2346  0.0061
    1DIPC   NC325837  26.426  10.616   1.801 -0.0852  0.1520 -0.0991
    1DIPC   PO425838  26.603  10.297   1.958 -0.0154  0.0440  0.2307
    1DIPC   GL125839  26.212  10.399   2.342 -0.2110 -0.2220  0.2695
    1DIPC   GL225840  26.302  10.222   2.620 -0.1259 -0.1446  0.0765
    1DIPC   C1A25841  26.041  10.605   2.684  0.0903  0.2001 -0.1216
    1DIPC   D2A25842  25.856  10.784   3.032  0.1224 -0.3131  0.0776
    1DIPC   D3A25843  25.819  10.653   3.495 -0.1082 -0.0964 -0.2374
    1DIPC   C4A25844  25.738  10.216   3.392  0.1410  0.1633  0.0936
    1DIPC   C1B25845  26.084  10.203   2.999  0.3107 -0.0782  0.2458
    1DIPC   D2B25846  26.166  10.048   3.484  0.0244 -0.1149  0.2667
    1DIPC   D3B25847  26.241  10.432   3.717 -0.1985  0.1086 -0.1299
    1DIPC   C4B25848  26.431  10.365   4.055 -0.3154  0.0318 -0.1656
    1DIPC   NC325849  29.745   8.209   2.310 -0.1359  0.3334  0.4711
    1DIPC   PO425850  29.489   8.063   2.597 -0.0991 -0.3375  0.2792
    1DIPC   GL125851  29.430   8.011   3.018 -0.0086  0.2238 -0.0295
    1DIPC   GL225852  29.161   8.160   3.324 -0.0317  0.1142  0.1600
    1DIPC   C1A25853  29.674   7.925   3.429 -0.1161  0.2375 -0.0773
    1DIPC   D2A25854  29.609   8.223   3.692  0.0156 -0.0792 -0.1660
    1DIPC   D3A25855  29.899   8.537   3.793  0.1761 -0.1658  0.1136
    1DIPC   C4A25856  30.087   8.742   4.219 -0.1404  0.0997 -0.1784
    1DIPC   C1B25857  29.125   8.289   3.782 -0.0830  0.0232 -0.2360
    1DIPC   D2B25858  29.007   8.389   4.205  0.0760 -0.2298 -0.0830
    1DIPC   D3B25859  28.688   8.351   4.501 -0.2907 -0.0986 -0.2389
    1DIPC   C4B25860  28.891   8.555   4.876  0.4231 -0.1077  0.0808
    1DIPC   NC325861  28.200   3.000   2.889  0.2110 -0.2185  0.1262
    1DIPC   PO425862  28.141   2.657   3.124 -0.1775  0.3169 -0.0179
    1DIPC   GL125863  28.007   2.545   3.468 -0.3876 -0.1693 -0.0279
    1DIPC   GL225864  27.728   2.586   3.508  0.1546  0.1683  0.2689
    1DIPC   C1A25865  28.097   2.238   3.850  0.1029 -0.1712 -0.3326
    1DIPC   D2A25866  28.257   2.209   4.303 -0.1517 -0.0400  0.1818
    1DIPC   D3A25867  28.463   2.552   4.482 -0.2509  0.3053  0.0698
    1DIPC   C4A25868  28.768   2.677   4.298  0.1649  0.2070  0.1042
    1DIPC   C1B25869  27.628   2.433   3.939 -0.1355  0.1609  0.3368
    1DIPC   D2B25870  27.597   2.562   4.417 -0.1686 -0.1790 -0.1127
    1DIPC   D3B25871  27.416   2.218   4.686  0.3233  0.2424  0.2037
    1DIPC   C4B25872  27.518   2.249   5.109 -0.0908 -0.1453 -0.1248
    1DIPC   NC325873  29.471  28.862   3.130  0.3780 -0.0568 -0.1875
    1DIPC   PO425874  29.717  29.235   3.244  0.0245 -0.2301  0.0482
    1DIPC   GL125875  30.027  29.203   3.558 -0.0898  0.1200  0.2145
    1DIPC   GL225876  30.340  28.944   3.584  0.1576 -0.0941 -0.2812
    1DIPC   C1A25877  30.278  29.219   4.013 -0.2184  0.0181 -0.0739
    1DIPC   D2A25878  30.355  29.191   4.380 -0.2580  0.0195 -0.3841
    1DIPC   D3A25879  30.784  29.177   4.660 -0.1478  0.1172  0.1491
    1DIPC   C4A25880  30.805  28.900   4.979  0.1740  0.1022  0.0204
    1DIPC   C1B25881  30.529  28.793   3.959 -0.1275 -0.1266 -0.3298
    1DIPC   D2B25882  30.662  28.755   4.357  0.3196 -0.2909  0.1668
    1DIPC   D3B25883  30.283  28.720   4.476 -0.0308 -0.0612 -0.0712
    1DIPC   C4B25884  30.081  28.393   4.323  0.0408 -0.1401  0.0471
    1DIPC   NC325885   7.926   7.718   3.247  0.2409 -0.2260 -0.1223
    1DIPC   PO425886   8.402   7.909   3.267  0.0480  0.1299 -0.0685
    1DIPC   GL125887   8.372   7.781   3.617 -0.1265  0.1085 -0.2881
    1DIPC   GL225888   8.541   7.450   3.722  0.1911 -0.0894 -0.3156
    1DIPC   C1A25889   8.664   8.047   3.967  0.1925  0.1654  0.2665
    1DIPC   D2A25890   8.556   8.119   4.343 -0.2462 -0.0563  0.0030
    1DIPC   D3A25891   8.589   8.388   4.658 -0.2087  0.0601  0.1361
    1DIPC   C4A25892   8.387   8.578   4.959 -0.1474 -0.3202  0.0384
    1DIPC   C1B25893   8.634   7.146   4.090 -0.3792 -0.1002 -0.0086
    1DIPC   D2B25894   8.894   7.114   4.330 -0.0381 -0.0336 -0.1447
    1DIPC   D3B25895   8.592   7.263   4.561  0.1763 -0.2697 -0.1390
    1DIPC   C4B25896   8.695   7.287   5.020  0.3384 -0.1700 -0.4388
    1DIPC   NC325897  23.150   8.502   2.883  0.1307 -0.2082  0.1690
    1DIPC   PO425898  23.127   8.086   2.921 -0.1381  0.0968  0.1021
    1DIPC   GL125899  23.249   8.196   3.326  0.2150  0.0977 -0.3319
    1DIPC   GL225900  23.153   8.540   3.369  0.0244  0.2675 -0.2596
    1DIPC   C1A25901  23.382   8.344   3.788  0.0237  0.0369  0.0507
    1DIPC   D2A25902  23.487   8.556   4.228  0.0940 -0.1462  0.1087
    1DIPC   D3A25903  23.324   8.347   4.598 -0.3419  0.2635  0.0545
    1DIPC   C4A25904  22.910   8.154   4.516 -0.2737 -0.3201 -0.1783
    1DIPC   C1B25905  22.881   8.355   3.748 -0.0901 -0.3501  0.0080
    1DIPC   D2B25906  22.620   8.239   4.134  0.3202  0.0390  0.0785
    1DIPC   D3B25907  22.525   8.646   4.337 -0.0700 -0.1748  0.0582
    1DIPC   C4B25908  22.097   8.779   4.256 -0.0266 -0.1209  0.0093
    1DIPC   NC325909   7.161   9.687   3.539 -0.0034  0.2535  0.2084
    1DIPC   PO425910   7.556   9.699   3.204 -0.1045  0.1008 -0.1957
    1DIPC   GL125911   7.604   9.499   3.613 -0.1475 -0.3067 -0.1448
    1DIPC   GL225912   7.787   9.279   3.663  0.2466  0.0786  0.0870
    1DIPC   C1A25913   7.687   9.755   4.000 -0.0127  0.0095  0.0443
    1DIPC   D2A25914   7.765   9.961   4.348 -0.4985  0.0116  0.1617
    1DIPC   D3A25915   7.843   9.869   4.842  0.2621  0.2952 -0.2056
    1DIPC   C4A25916   7.680   9.652   5.186 -0.1152  0.2924  0.2881
    1DIPC   C1B25917   7.988   9.045   3.864  0.0571 -0.0529 -0.1403
    1DIPC   D2B25918   8.233   8.986   4.195 -0.1267 -0.0459  0.1423
    1DIPC   D3B25919   8.407   8.852   4.516 -0.0700 -0.3210  0.0094
    1DIPC   C4B25920   8.448   9.097   4.916 -0.1766  0.1203  0.0896
    1DIPC   NC325921   3.876   9.709   3.020  0.0420 -0.0615  0.1375
    1DIPC   PO425922   3.684  10.089   3.147  0.2209  0.2354 -0.3726
    1DIPC   GL125923   3.555  10.442   3.390 -0.1674 -0.0285  0.2916
    1DIPC   GL225924   3.277  10.419   3.439  0.1339  0.1884  0.0607
    1DIPC   C1A25925   3.512  10.466   3.874  0.0081 -0.2965 -0.0167
    1DIPC   D2A25926   3.472  10.642   4.277  0.0810 -0.0597 -0.2074
    1DIPC   D3A25927   3.731  10.756   4.642  0.4220 -0.1026  0.1967
    1DIPC   C4A25928   3.521  11.015   4.835 -0.1191  0.3717 -0.1101
    1DIPC   C1B25929   3.183  10.857   3.485 -0.0348 -0.2079  0.0432
    1DIPC   D2B25930   2.970  11.109   3.817  0.5443  0.2100  0.1218
    1DIPC   D3B25931   3.253  11.498   3.909  0.1543  0.1714 -0.0475
    1DIPC   C4B25932   3.038  11.739   3.828 -0.1302  0.3105 -0.0623
    1DIPC   NC325933   0.443  13.419   1.700 -0.1986  0.1191 -0.2288
    1DIPC   PO425934   0.009  13.262   1.958  0.1793 -0.1815 -0.1226
    1DIPC   GL125935  -0.116  13.360   2.419 -0.2618  0.0261  0.1509
    1DIPC   GL225936   0.121  13.625   2.650 -0.3650  0.1985 -0.0113
    1DIPC   C1A25937  -0.502  13.429   2.607 -0.0232 -0.3993  0.0137
    1DIPC   D2A25938  -0.514  13.605   3.014 -0.1042  0.1400 -0.1762
    1DIPC   D3A25939  -0.317  13.344   3.340 -0.0747  0.0001 -0.2209
    1DIPC   C4A25940  -0.513  13.412   3.785 -0.1831 -0.2886  0.0048
    1DIPC   C1B25941   0.149  13.222   2.802 -0.0667 -0.1684  0.2603
    1DIPC   D2B25942   0.278  12.982   3.063  0.1646  0.0771 -0.0783
    1DIPC   D3B25943   0.105  12.982   3.491  0.2020 -0.0303  0.0221
    1DIPC   C4B25944   0.382  13.044   3.875 -0.2882  0.0208  0.1829
    1DIPC   NC325945   5.293  27.764   2.350  0.0667 -0.2451  0.1212
    1DIPC   PO425946   5.356  27.798   2.737  0.0324 -0.0723  0.0903
    1DIPC   GL125947   5.353  27.588   3.123  0.1656 -0.1408 -0.0090
    1DIPC   GL225948   5.239  27.857   3.449 -0.0232  0.0061 -0.3586
    1DIPC   C1A25949   5.041  27.426   3.499  0.1686 -0.0670  0.1365
    1DIPC   D2A25950   4.698  27.092   3.639 -0.0805  0.3133 -0.0791
    1DIPC   D3A25951   4.431  27.133   3.936 -0.3155  0.0772  0.2459
    1DIPC   C4A25952   4.340  26.911   4.375  0.0020  0.2620 -0.1852
    1DIPC   C1B25953   5.017  27.906   3.780 -0.0943 -0.1625 -0.0366
    1DIPC   D2B25954   4.773  27.579   3.850  0.0303  0.1067  0.0179
    1DIPC   D3B25955   4.418  27.526   3.500  0.1025 -0.0261 -0.1763
    1DIPC   C4B25956   4.068  27.183   3.584 -0.1159 -0.1566  0.1095
    1DIPC   NC325957  28.537   1.669   2.477 -0.2101  0.4273  0.0320
    1DIPC   PO425958  28.729   1.839   2.947  0.0378  0.2013 -0.3286
    1DIPC   GL125959  28.683   1.982   3.330  0.1837 -0.1361  0.2349
    1DIPC   GL225960  28.390   2.154   3.339 -0.0678  0.0627  0.0141
    1DIPC   C1A25961  28.695   2.009   3.805 -0.1048  0.0551  0.1385
    1DIPC   D2A25962  28.730   2.049   4.268 -0.0757 -0.0855  0.1000
    1DIPC   D3A25963  28.608   1.755   4.518 -0.1361  0.1765 -0.1957
    1DIPC   C4A25964  28.151   1.794   4.581  0.4493 -0.0401  0.1394
    1DIPC   C1B25965  28.251   1.824   3.609 -0.0047 -0.0664  0.1143
    1DIPC   D2B25966  28.447   1.424   3.713  0.3308 -0.2547  0.2238
    1DIPC   D3B25967  28.741   1.494   3.992 -0.2579  0.1715  0.1437
    1DIPC   C4B25968  29.078   1.820   3.937  0.0663  0.0040  0.1952
    1DIPC   NC325969  12.266  29.645   3.234 -0.0202  0.1229 -0.0144
    1DIPC   PO425970  11.863  29.487   3.215 -0.1804  0.1408  0.0694
    1DIPC   GL125971  11.840  29.400   3.658 -0.1861  0.2312  0.0699
    1DIPC   GL225972  11.849  29.023   3.666  0.3363 -0.1247 -0.4123
    1DIPC   C1A25973  11.490  29.563   3.930 -0.1461  0.0988 -0.1175
    1DIPC   D2A25974  11.103  29.489   4.008 -0.5202  0.1022 -0.2579
    1DIPC   D3A25975  11.124  29.547   4.414 -0.0114  0.2656 -0.4302
    1DIPC   C4A25976  11.327  29.266   4.770  0.1266 -0.0087  0.3615
    1DIPC   C1B25977  11.749  28.892   3.995 -0.1076  0.0718 -0.0383
    1DIPC   D2B25978  11.645  28.743   4.401 -0.2201 -0.1418  0.0122
    1DIPC   D3B25979  11.836  28.402   4.251  0.0363  0.0661 -0.1951
    1DIPC   C4B25980  12.114  28.266   4.673 -0.0223 -0.0519 -0.1412
    1DIPC   NC325981   2.216  11.911   2.601 -0.1551  0.1849  0.0402
    1DIPC   PO425982   2.575  12.194   2.775  0.1359 -0.1258  0.0470
    1DIPC   GL125983   2.403  12.324   3.155  0.0833 -0.1557 -0.4546
    1DIPC   GL225984   2.634  12.329   3.282  0.0204 -0.1260  0.0045
    1DIPC   C1A25985   2.111  12.294   3.465 -0.3171 -0.0482  0.0261
    1DIPC   D2A25986   1.855  12.447   3.796 -0.0939  0.1150  0.0212
    1DIPC   D3A25987   1.492  12.069   3.893 -0.2245 -0.2662  0.0650
    1DIPC   C4A25988   1.165  12.315   4.042 -0.3702 -0.2126 -0.2527
    1DIPC   C1B25989   2.816  12.317   3.663 -0.0793 -0.0373  0.3463
    1DIPC   D2B25990   2.635  12.300   4.175 -0.2109  0.0927  0.1685
    1DIPC   D3B25991   2.870  12.006   4.183 -0.1129  0.2402  0.0880
    1DIPC   C4B25992   3.264  11.809   4.357  0.2504 -0.0801 -0.1355
    1DIPC   NC325993  21.730  19.824   2.755  0.2659  0.3995 -0.0051
    1DIPC   PO425994  21.997  20.174   2.987  0.1580 -0.2744 -0.0804
    1DIPC   GL125995  21.923  20.094   3.362  0.2528 -0.2438 -0.0556
    1DIPC   GL225996  22.010  20.211   3.498  0.2018  0.1116  0.0224
    1DIPC   C1A25997  21.994  19.598   3.517  0.0092 -0.2100 -0.2725
    1DIPC   D2A25998  21.888  19.199   3.746  0.0896 -0.0541 -0.0586
    1DIPC   D3A25999  21.950  19.594   4.036 -0.0726  0.0520  0.0224
    1DIPC   C4A26000  21.747  19.597   4.532  0.1878  0.0358  0.1363
    1DIPC   C1B26001  22.172  20.346   3.915 -0.0564  0.1634 -0.0194
    1DIPC   D2B26002  22.499  20.243   4.231 -0.1386  0.1941  0.1816
    1DIPC   D3B26003  22.280  20.534   4.492 -0.2733 -0.0910  0.2251
    1DIPC   C4B26004  22.464  20.998   4.649  0.1704  0.2709  0.1079
    1DIPC   NC326005   5.579  10.698   3.200 -0.0147  0.0872 -0.0521
    1DIPC   PO426006   5.859  10.928   3.422  0.2603 -0.0724 -0.1439
    1DIPC   GL126007   5.615  10.884   3.794  0.3832  0.0486 -0.0041
    1DIPC   GL226008   5.338  10.701   3.658 -0.0481  0.1623 -0.2991
    1DIPC   C1A26009   5.490  10.811   4.179  0.5219  0.1348  0.0457
    1DIPC   D2A26010   5.495  11.145   4.608 -0.1691 -0.0902  0.1245
    1DIPC   D3A26011   5.379  11.267   5.028 -0.1810 -0.1321 -0.2955
    1DIPC   C4A26012   4.992  11.489   5.110  0.1496  0.2170  0.0374
    1DIPC   C1B26013   5.153  11.040   3.804  0.1370 -0.2799  0.1888
    1DIPC   D2B26014   4.878  11.361   4.101 -0.0851  0.1362  0.1482
    1DIPC   D3B26015   5.024  11.576   3.787  0.2111 -0.0135  0.1315
    1DIPC   C4B26016   5.057  11.879   3.671 -0.0587 -0.0715  0.0929
    1DIPC   NC326017   3.952  19.958   2.028 -0.1522 -0.1456 -0.1757
    1DIPC   PO426018   4.069  20.025   2.461  0.4590  0.1038  0.2249
    1DIPC   GL126019   4.115  19.913   2.834 -0.2449 -0.4431  0.0414
    1DIPC   GL226020   4.113  19.528   2.892  0.0116  0.1751 -0.1967
    1DIPC   C1A26021   4.202  19.857   3.218 -0.0538  0.1893 -0.0937
    1DIPC   D2A26022   4.529  19.910   3.580  0.1120 -0.0536  0.2820
    1DIPC   D3A26023   4.305  19.830   3.893 -0.0062 -0.4229  0.0750
    1DIPC   C4A26024   4.632  20.019   4.168  0.1194 -0.0445 -0.2966
    1DIPC   C1B26025   3.986  19.326   3.237  0.1381  0.0763 -0.1341
    1DIPC   D2B26026   4.017  18.997   3.492  0.0495  0.1138  0.1308
    1DIPC   D3B26027   3.728  18.599   3.612  0.3741 -0.3477 -0.0173
    1DIPC   C4B26028   3.806  18.196   3.371  0.1591  0.0595 -0.1725
    1DIPC   NC326029   6.101  16.591   2.668  0.5265  0.0083 -0.0330
    1DIPC   PO426030   5.777  16.805   2.412 -0.2281 -0.0238 -0.0223
    1DIPC   GL126031   5.580  16.897   2.812  0.1701 -0.1986 -0.0428
    1DIPC   GL226032   5.760  16.819   2.973 -0.1329 -0.3286  0.0554
    1DIPC   C1A26033   5.353  17.125   3.174 -0.1622 -0.1451  0.0500
    1DIPC   D2A26034   5.063  17.385   3.461  0.2550 -0.2218  0.0571
    1DIPC   D3A26035   4.574  17.466   3.439  0.0775  0.0389 -0.2216
    1DIPC   C4A26036   4.400  17.826   3.721 -0.1738 -0.0990  0.0889
    1DIPC   C1B26037   5.721  16.889   3.492 -0.3171 -0.1249 -0.0304
    1DIPC   D2B26038   5.455  17.052   3.782 -0.1184 -0.0765  0.2440
    1DIPC   D3B26039   5.586  16.763   4.029 -0.2276  0.1102  0.2226
    1DIPC   C4B26040   5.991  16.656   3.894 -0.2281  0.0333 -0.2616
    1DIPC   NC326041  10.794   7.868   2.775 -0.2153  0.1726  0.0497
    1DIPC   PO426042  10.876   7.494   3.194 -0.1236  0.2061  0.1219
    1DIPC   GL126043  10.762   7.628   3.563  0.1120 -0.2997 -0.0671
    1DIPC   GL226044  10.637   7.319   3.702 -0.0888 -0.5143  0.0318
    1DIPC   C1A26045  10.734   7.711   4.047 -0.0667  0.0829 -0.1741
    1DIPC   D2A26046  10.657   7.645   4.483  0.0340  0.0206 -0.0430
    1DIPC   D3A26047  11.028   7.632   4.755 -0.1674  0.2580 -0.0556
    1DIPC   C4A26048  11.309   7.274   4.910  0.1397 -0.3291  0.3033
    1DIPC   C1B26049  10.468   7.249   3.993 -0.0319 -0.0864  0.0031
    1DIPC   D2B26050  10.299   7.234   4.439 -0.3101 -0.0028  0.0593
    1DIPC   D3B26051  10.316   7.362   4.814 -0.3391 -0.4140 -0.4256
    1DIPC   C4B26052  10.588   7.695   5.184 -0.0664  0.2933 -0.0970
    1DIPC   NC326053  12.641  28.779   3.532  0.1247  0.2418  0.0812
    1DIPC   PO426054  12.251  28.593   3.408  0.0761  0.1075 -0.2447
    1DIPC   GL126055  12.309  28.514   3.899  0.0770 -0.1056 -0.1795
    1DIPC   GL226056  12.220  28.754   3.977  0.1762 -0.1730  0.1447
    1DIPC   C1A26057  12.301  28.205   4.231 -0.1645 -0.0446  0.1651
    1DIPC   D2A26058  12.268  27.737   4.426  0.1646  0.0983  0.0942
    1DIPC   D3A26059  12.413  27.516   4.799  0.1360 -0.0991  0.2070
    1DIPC   C4A26060  12.513  27.702   5.069  0.2640 -0.2446  0.1723
    1DIPC   C1B26061  12.153  28.897   4.353  0.1501 -0.0498 -0.1666
    1DIPC   D2B26062  12.144  28.891   4.715  0.0205  0.1809 -0.1524
    1DIPC   D3B26063  12.262  28.697   5.032  0.0314 -0.0289 -0.1053
    1DIPC   C4B26064  12.024  28.638   5.388  0.5359 -0.2142  0.2268
    1DIPC   NC326065   0.055  12.290   1.823 -0.2362 -0.0249  0.0720
    1DIPC   PO426066   0.027  12.248   2.151 -0.1081 -0.1023  0.0172
    1DIPC   GL126067  -0.023  12.436   2.570  0.1027  0.3419  0.0853
    1DIPC   GL226068  -0.034  12.189   2.799 -0.0537  0.2281 -0.1968
    1DIPC   C1A26069   0.312  12.582   2.789  0.0862  0.1996 -0.2819
    1DIPC   D2A26070   0.594  12.814   2.705 -0.1175 -0.1341  0.1334
    1DIPC   D3A26071   0.743  12.556   3.081  0.0760 -0.0028 -0.3581
    1DIPC   C4A26072   0.438  12.362   3.381  0.3312 -0.2731 -0.0787
    1DIPC   C1B26073  -0.022  12.081   3.188  0.1460  0.0392  0.2817
    1DIPC   D2B26074   0.036  12.247   3.627 -0.0492 -0.1789 -0.2341
    1DIPC   D3B26075  -0.111  12.582   3.776 -0.0631  0.0330 -0.0243
    1DIPC   C4B26076  -0.488  12.692   4.079 -0.0210  0.1981  0.0009
    1DIPC   NC326077  21.846   6.367   2.775 -0.0870  0.1011  0.0718
    1DIPC   PO426078  21.500   6.633   2.997 -0.2597  0.0473 -0.0334
    1DIPC   GL126079  21.577   6.902   3.350  0.1382  0.4175  0.0715
    1DIPC   GL226080  21.899   6.997   3.454  0.1128 -0.0526 -0.3968
    1DIPC   C1A26081  21.473   6.916   3.787 -0.1814 -0.1763 -0.1696
    1DIPC   D2A26082  21.650   6.915   4.133 -0.0181 -0.3635 -0.3207
    1DIPC   D3A26083  21.237   7.098   4.357 -0.4017  0.2109  0.3192
    1DIPC   C4A26084  21.402   7.487   4.334 -0.0434 -0.0130  0.0456
    1DIPC   C1B26085  21.988   7.246   3.771  0.3745  0.0555  0.1002
    1DIPC   D2B26086  21.845   7.583   4.132  0.1107 -0.2753 -0.2438
    1DIPC   D3B26087  21.554   7.543   3.831  0.2077  0.4882  0.1637
    1DIPC   C4B26088  21.652   8.013   3.543 -0.0638  0.0229 -0.2225
    1DIPC   NC326089   5.352   2.575   3.368 -0.0880 -0.2069 -0.1320
    1DIPC   PO426090   5.103   2.994   3.423 -0.1118  0.0689 -0.0072
    1DIPC   GL126091   5.311   2.796   3.788  0.2174 -0.1406  0.0822
    1DIPC   GL226092   5.513   2.939   4.041 -0.0238 -0.0098 -0.1194
    1DIPC   C1A26093   5.082   2.661   4.204 -0.1714 -0.0337 -0.1931
    1DIPC   D2A26094   4.882   2.190   4.382  0.2750 -0.0212  0.1892
    1DIPC   D3A26095   4.658   2.422   4.697  0.0620 -0.0255 -0.1899
    1DIPC   C4A26096   4.338   2.256   4.905 -0.0465  0.0733 -0.0568
    1DIPC   C1B26097   5.387   3.097   4.420 -0.1899  0.0761 -0.2942
    1DIPC   D2B26098   5.133   3.242   4.821  0.2739  0.1656 -0.1883
    1DIPC   D3B26099   4.876   2.920   5.017 -0.1687 -0.0460  0.2757
    1DIPC   C4B26100   5.011   2.759   4.756 -0.1338  0.0182  0.1970
    1DIPC   NC326101  25.391  23.353   3.016 -0.0793 -0.2130  0.1807
    1DIPC   PO426102  25.242  22.945   3.110  0.0427 -0.0934 -0.0817
    1DIPC   GL126103  25.120  23.055   3.502  0.1246  0.0561 -0.0292
    1DIPC   GL226104  24.851  23.042   3.628 -0.3766 -0.3779 -0.3467
    1DIPC   C1A26105  25.205  22.802   3.924  0.0135 -0.0082  0.2567
    1DIPC   D2A26106  25.186  22.709   4.372  0.1099  0.1270  0.1530
    1DIPC   D3A26107  25.584  22.940   4.430  0.0709  0.0368  0.0318
    1DIPC   C4A26108  25.664  23.063   3.995 -0.1353  0.4372  0.0487
    1DIPC   C1B26109  24.917  23.183   4.084 -0.0197 -0.1658 -0.2547
    1DIPC   D2B26110  25.230  23.227   4.345  0.1402  0.0870 -0.0139
    1DIPC   D3B26111  25.140  23.643   4.605 -0.0688 -0.0481 -0.2904
    1DIPC   C4B26112  25.430  23.493   4.859  0.0312 -0.0732 -0.2908
    1DIPC   NC326113  26.308  24.829   2.389 -0.2648 -0.0507 -0.4113
    1DIPC   PO426114  26.443  24.819   2.779 -0.1393  0.1864  0.3070
    1DIPC   GL126115  26.485  24.640   3.181 -0.2314  0.0241  0.0513
    1DIPC   GL226116  26.431  24.422   3.256  0.0979 -0.0690 -0.1931
    1DIPC   C1A26117  26.689  24.724   3.607  0.1187  0.0628  0.1295
    1DIPC   D2A26118  26.983  24.480   3.889  0.0342  0.0161  0.5047
    1DIPC   D3A26119  26.959  24.779   4.196 -0.2480  0.0074  0.1716
    1DIPC   C4A26120  27.175  24.887   4.532 -0.1230 -0.1032 -0.0226
    1DIPC   C1B26121  26.129  24.477   3.629 -0.1680  0.3856  0.0384
    1DIPC   D2B26122  25.799  24.705   3.810 -0.2363  0.0824  0.0831
    1DIPC   D3B26123  25.961  24.784   4.205  0.1853 -0.1703  0.0314
    1DIPC   C4B26124  26.224  24.505   4.493 -0.1710 -0.0421  0.1978
    1DIPC   NC326125   0.765   9.101   2.593  0.0647 -0.3100  0.1929
    1DIPC   PO426126   0.834   9.329   2.951  0.0223 -0.1288 -0.3340
    1DIPC   GL126127   0.928   9.430   3.371  0.0384 -0.0898 -0.1254
    1DIPC   GL226128   0.752   9.720   3.519 -0.2041 -0.1249  0.3453
    1DIPC   C1A26129   0.940   9.074   3.789 -0.0097  0.2714  0.4939
    1DIPC   D2A26130   0.748   8.918   4.086 -0.0494 -0.0450  0.1342
    1DIPC   D3A26131   0.760   8.766   4.365 -0.0324 -0.1591 -0.2073
    1DIPC   C4A26132   0.556   8.774   4.609 -0.2180 -0.2429  0.1474
    1DIPC   C1B26133   0.889   9.605   3.981 -0.0969  0.1569  0.3423
    1DIPC   D2B26134   1.211   9.566   4.348  0.2972  0.0051  0.1566
    1DIPC   D3B26135   0.799   9.711   4.532  0.0039 -0.0953 -0.1994
    1DIPC   C4B26136   0.509   9.591   4.336 -0.2070  0.2732 -0.0940
    1DIPC   NC326137  27.979  27.838   2.737  0.0331  0.0788 -0.0160
    1DIPC   PO426138  27.973  27.441   2.941  0.0312 -0.0361 -0.0135
    1DIPC   GL126139  27.667  27.247   3.283 -0.0326 -0.3909  0.0310
    1DIPC   GL226140  27.302  27.044   3.263  0.1259 -0.3512 -0.0166
    1DIPC   C1A26141  27.513  27.129   3.711 -0.0191  0.0397  0.0037
    1DIPC   D2A26142  27.424  27.135   4.127  0.1340  0.2437  0.2132
    1DIPC   D3A26143  27.549  27.448   4.133 -0.4620  0.0436 -0.0554
    1DIPC   C4A26144  27.862  27.440   4.365 -0.0681  0.0538  0.2255
    1DIPC   C1B26145  27.088  27.238   3.572 -0.0437 -0.1544  0.3786
    1DIPC   D2B26146  27.136  27.544   3.888 -0.0438  0.0294 -0.3233
    1DIPC   D3B26147  26.864  27.416   4.227  0.0490 -0.1846  0.3382
    1DIPC   C4B26148  27.081  27.078   4.527 -0.2409 -0.0818 -0.1976
    1DIPC   NC326149  18.233  26.148   2.780  0.2189  0.1326  0.0359
    1DIPC   PO426150  18.288  26.242   3.142  0.1803 -0.0062  0.1588
    1DIPC   GL126151  18.546  25.954   3.325  0.0802 -0.0089  0.2368
    1DIPC   GL226152  18.430  25.727   3.461  0.2350 -0.0448  0.1848
    1DIPC   C1A26153  18.676  26.092   3.703 -0.0515 -0.1608 -0.1880
    1DIPC   D2A26154  18.701  25.702   3.978  0.4804 -0.2004  0.2157
    1DIPC   D3A26155  18.959  25.399   3.975  0.1421 -0.0045 -0.0638
    1DIPC   C4A26156  19.103  25.059   4.061  0.0539  0.3229 -0.0132
    1DIPC   C1B26157  18.230  25.860   3.843  0.1012 -0.4625 -0.1662
    1DIPC   D2B26158  18.134  26.055   4.181  0.1700 -0.1767 -0.1411
    1DIPC   D3B26159  18.419  25.869   4.412 -0.1733  0.2110 -0.0168
    1DIPC   C4B26160  18.400  25.998   4.775 -0.0899  0.4940  0.0248
    1DIPC   NC326161   0.173   2.582   3.306 -0.1314  0.2315  0.2154
    1DIPC   PO426162   0.374   2.221   3.277 -0.0133 -0.3585 -0.0217
    1DIPC   GL126163   0.560   2.261   3.594  0.0528 -0.0952  0.2626
    1DIPC   GL226164   0.371   2.472   3.735  0.0645  0.1411  0.1215
    1DIPC   C1A26165   0.806   2.410   3.904 -0.1741 -0.0630 -0.3640
    1DIPC   D2A26166   0.858   2.373   4.323  0.0706  0.3484  0.0567
    1DIPC   D3A26167   0.412   2.556   4.360 -0.1618 -0.0784  0.2844
    1DIPC   C4A26168   0.279   2.839   4.125 -0.1357  0.0327  0.1627
    1DIPC   C1B26169   0.148   2.245   4.052  0.1102 -0.2349  0.1882
    1DIPC   D2B26170   0.092   2.144   4.412  0.1251 -0.1307  0.3716
    1DIPC   D3B26171  -0.219   1.961   4.724 -0.1247  0.1434 -0.0556
    1DIPC   C4B26172  -0.118   1.808   5.209  0.3099 -0.0244  0.3149
    1DIPC   NC326173  21.611  21.018   3.531 -0.1677  0.2701  0.1342
    1DIPC   PO426174  21.638  21.403   3.670  0.1473 -0.1148  0.1256
    1DIPC   GL126175  21.733  21.134   3.997  0.2520 -0.0017 -0.1649
    1DIPC   GL226176  21.550  21.025   4.184 -0.0323 -0.2167  0.1581
    1DIPC   C1A26177  22.028  21.043   4.378 -0.2170 -0.0070 -0.3018
    1DIPC   D2A26178  22.000  20.898   4.862  0.1864 -0.1813  0.0908
    1DIPC   D3A26179  21.790  20.636   4.591  0.1538  0.1541 -0.0301
    1DIPC   C4A26180  21.904  20.657   4.140  0.0601  0.1624  0.0583
    1DIPC   C1B26181  21.156  20.898   4.449  0.1042  0.3673  0.1762
    1DIPC   D2B26182  20.872  20.994   4.724  0.1076  0.0456 -0.4697
    1DIPC   D3B26183  21.038  21.304   5.077  0.2231  0.2552  0.1213
    1DIPC   C4B26184  20.707  21.491   5.275 -0.0342  0.0376  0.2561
    1DIPC   NC326185  21.286  23.585   3.097  0.1828 -0.1123 -0.0533
    1DIPC   PO426186  21.665  23.560   3.437 -0.0104 -0.1192 -0.1106
    1DIPC   GL126187  21.534  23.385   3.856  0.2126 -0.1551 -0.0375
    1DIPC   GL226188  21.393  23.572   3.918 -0.3163  0.0790 -0.0029
    1DIPC   C1A26189  21.569  23.373   4.327 -0.0700  0.1212 -0.0790
    1DIPC   D2A26190  21.835  23.541   4.655 -0.0521 -0.0193 -0.2060
    1DIPC   D3A26191  22.015  23.945   4.881  0.0681  0.0052  0.0581
    1DIPC   C4A26192  22.036  24.312   4.663  0.3232  0.0464  0.1597
    1DIPC   C1B26193  21.547  23.841   4.102 -0.0285 -0.2324 -0.2358
    1DIPC   D2B26194  21.618  24.097   4.480  0.2953 -0.0957  0.0328
    1DIPC   D3B26195  21.240  24.146   4.701 -0.0342  0.0700 -0.0968
    1DIPC   C4B26196  20.804  24.145   4.529 -0.2662  0.0603 -0.0150
    1DIPC   NC326197  18.454  28.875   3.294 -0.1377  0.0657 -0.2626
    1DIPC   PO426198  18.085  28.841   3.556  0.2336  0.1718 -0.1118
    1DIPC   GL126199  18.293  28.718   3.885 -0.0766 -0.1053 -0.1518
    1DIPC   GL226200  18.006  28.927   4.037 -0.1336 -0.1225 -0.1357
    1DIPC   C1A26201  18.110  28.340   4.192 -0.0637 -0.1831  0.0512
    1DIPC   D2A26202  17.778  28.158   4.452  0.4241  0.0606  0.0650
    1DIPC   D3A26203  17.743  28.324   4.871 -0.2508  0.0664 -0.0088
    1DIPC   C4A26204  17.970  28.642   4.950 -0.2585  0.0431  0.0665
    1DIPC   C1B26205  17.921  28.815   4.486 -0.2696  0.2233 -0.2082
    1DIPC   D2B26206  17.592  28.925   4.892  0.1704 -0.1180 -0.2196
    1DIPC   D3B26207  17.833  29.327   5.005 -0.0745 -0.1203 -0.1052
    1DIPC   C4B26208  18.207  29.621   4.848 -0.4191 -0.0434 -0.0122
    1DIPC   NC326209   2.567  17.629   2.043 -0.0143 -0.1746  0.0662
    1DIPC   PO426210   2.500  17.971   2.383  0.0965  0.1166  0.1464
    1DIPC   GL126211   2.899  17.892   2.574  0.0509 -0.1294  0.3212
    1DIPC   GL226212   2.960  17.815   2.878  0.1999 -0.1866 -0.0517
    1DIPC   C1A26213   3.228  17.453   2.663 -0.1159 -0.0511 -0.2049
    1DIPC   D2A26214   3.213  17.077   2.668 -0.2843 -0.1516  0.0588
    1DIPC   D3A26215   3.447  17.283   3.077 -0.0601 -0.0623  0.2307
    1DIPC   C4A26216   3.924  17.228   3.326 -0.1784  0.1828  0.2986
    1DIPC   C1B26217   2.952  17.809   3.252  0.0030 -0.2682 -0.2748
    1DIPC   D2B26218   3.044  17.916   3.692  0.0374 -0.1329 -0.0378
    1DIPC   D3B26219   2.977  17.516   3.865  0.1313 -0.2293  0.3677
    1DIPC   C4B26220   2.577  17.417   3.832 -0.4459  0.0568  0.0551
    1DIPC   NC326221  12.177  25.645   2.902  0.2033  0.2891 -0.2450
    1DIPC   PO426222  12.365  25.225   2.831  0.2278  0.1775 -0.0271
    1DIPC   GL126223  12.456  25.368   3.286 -0.0956 -0.0207  0.0533
    1DIPC   GL226224  12.254  25.157   3.480  0.0366  0.0236 -0.2608
    1DIPC   C1A26225  12.569  25.606   3.655 -0.0257  0.1176  0.3419
    1DIPC   D2A26226  12.868  25.788   4.064  0.0508  0.1654  0.0453
    1DIPC   D3A26227  12.452  25.716   4.197 -0.2438  0.2448 -0.2616
    1DIPC   C4A26228  12.284  25.978   4.477 -0.0967 -0.0595 -0.0142
    1DIPC   C1B26229  12.109  24.850   3.716 -0.2253 -0.0642 -0.0567
    1DIPC   D2B26230  11.929  24.509   3.891  0.0776  0.1766  0.2772
    1DIPC   D3B26231  11.985  24.212   4.338  0.2186 -0.0093  0.0321
    1DIPC   C4B26232  11.520  24.080   4.499  0.2044  0.1872  0.0226
    1DIPC   NC326233  11.325   4.839   3.840 -0.1016  0.2034 -0.0279
    1DIPC   PO426234  11.200   4.458   3.609  0.1369  0.0758  0.4372
    1DIPC   GL126235  11.193   4.436   4.077 -0.0796  0.1392  0.0512
    1DIPC   GL226236  11.210   4.117   4.173 -0.1479  0.0704  0.1487
    1DIPC   C1A26237  11.197   4.258   4.635 -0.1639 -0.3569  0.1718
    1DIPC   D2A26238  11.571   4.283   4.960  0.0382  0.0636 -0.0103
    1DIPC   D3A26239  11.466   4.019   5.308 -0.1902 -0.2012  0.0653
    1DIPC   C4A26240  11.693   4.108   5.756 -0.0241  0.1726 -0.0398
    1DIPC   C1B26241  11.719   4.043   4.099 -0.0434  0.1786  0.2500
    1DIPC   D2B26242  12.128   4.093   4.403  0.2527  0.0751 -0.1705
    1DIPC   D3B26243  12.220   3.824   4.696  0.0911  0.0158  0.2352
    1DIPC   C4B26244  12.139   3.339   4.723 -0.2662  0.0005  0.0748
    1DIPC   NC326245   7.259   7.170   3.544 -0.2017  0.2756  0.1114
    1DIPC   PO426246   7.750   7.268   3.462 -0.0467  0.1483  0.2365
    1DIPC   GL126247   7.596   7.233   3.881 -0.0669  0.0074 -0.0040
    1DIPC   GL226248   7.285   7.110   4.036  0.0050 -0.0501  0.3246
    1DIPC   C1A26249   7.581   7.097   4.376 -0.0206  0.0001 -0.2194
    1DIPC   D2A26250   7.571   6.948   4.881 -0.2779 -0.0545 -0.1680
    1DIPC   D3A26251   7.236   6.989   5.249 -0.1313  0.3327  0.3379
    1DIPC   C4A26252   6.871   7.184   5.466 -0.2203 -0.0452  0.1893
    1DIPC   C1B26253   7.319   7.529   4.239 -0.1910 -0.1679  0.0835
    1DIPC   D2B26254   7.357   7.815   4.597 -0.0631  0.2185 -0.0512
    1DIPC   D3B26255   7.007   7.760   4.949 -0.2333  0.1208  0.0990
    1DIPC   C4B26256   7.202   7.525   5.176 -0.2222 -0.2070 -0.2634
    1DIPC   NC326257   5.427   6.459   3.474 -0.0583  0.2291  0.0793
    1DIPC   PO426258   5.848   6.694   3.514 -0.1149 -0.2183  0.0260
    1DIPC   GL126259   5.835   6.896   3.854  0.5177  0.0833 -0.3232
    1DIPC   GL226260   6.088   6.917   3.980 -0.1282 -0.0724 -0.2403
    1DIPC   C1A26261   5.647   7.023   4.265  0.0197 -0.2399 -0.1333
    1DIPC   D2A26262   5.478   6.810   4.638 -0.4252  0.0464  0.1664
    1DIPC   D3A26263   5.711   6.907   4.969  0.0794 -0.1087 -0.2334
    1DIPC   C4A26264   6.100   6.898   5.092 -0.1510  0.4323 -0.0604
    1DIPC   C1B26265   5.970   6.654   4.292  0.0787 -0.1933 -0.1643
    1DIPC   D2B26266   6.095   6.525   4.733 -0.1626 -0.0917 -0.1358
    1DIPC   D3B26267   5.964   6.425   5.026 -0.1126 -0.2489 -0.0065
    1DIPC   C4B26268   5.777   6.005   5.256 -0.0576 -0.1246 -0.2331
    1DIPC   NC326269  16.552  22.880   2.495  0.0923 -0.3278 -0.1154
    1DIPC   PO426270  16.961  22.967   2.561 -0.2435  0.2272  0.0519
    1DIPC   GL126271  16.774  22.949   3.026  0.0418 -0.1306  0.1479
    1DIPC   GL226272  16.515  23.192   3.163  0.1026  0.0813 -0.2560
    1DIPC   C1A26273  17.000  23.027   3.417 -0.0155  0.0549 -0.1710
    1DIPC   D2A26274  16.974  22.847   3.880 -0.0572 -0.2267 -0.0386
    1DIPC   D3A26275  16.604  22.859   4.114 -0.1766  0.0253 -0.2623
    1DIPC   C4A26276  16.172  22.721   3.837  0.0227  0.3141 -0.0349
    1DIPC   C1B26277  16.588  23.033   3.614 -0.0025  0.1993 -0.4383
    1DIPC   D2B26278  16.267  23.252   3.849  0.1287  0.0650 -0.1750
    1DIPC   D3B26279  16.062  23.575   3.742 -0.1452  0.3003  0.0750
    1DIPC   C4B26280  16.013  23.999   4.001 -0.0996  0.1138  0.1739
    1DIPC   NC326281  12.894  24.310   2.463 -0.0750 -0.0450  0.1285
    1DIPC   PO426282  13.066  24.579   2.754 -0.1405  0.1922 -0.2666
    1DIPC   GL126283  12.775  24.380   2.941  0.2781 -0.2706  0.0426
    1DIPC   GL226284  13.007  24.403   3.204  0.1055 -0.2484  0.1761
    1DIPC   C1A26285  12.476  24.147   3.035 -0.1589 -0.0599  0.2801
    1DIPC   D2A26286  12.247  23.742   3.019 -0.0320  0.1629 -0.0597
    1DIPC   D3A26287  12.312  23.843   3.496  0.2141 -0.4535  0.0170
    1DIPC   C4A26288  12.628  24.186   3.530  0.4098  0.1220  0.0805
    1DIPC   C1B26289  13.015  24.558   3.649 -0.0564 -0.3070  0.1388
    1DIPC   D2B26290  13.325  24.907   3.647 -0.0803 -0.1633 -0.3717
    1DIPC   D3B26291  13.651  24.693   3.930 -0.2886 -0.1930  0.0220
    1DIPC   C4B26292  13.653  24.541   4.390 -0.0426 -0.0089 -0.1015
    1DIPC   NC326293  26.109  27.810   2.947 -0.1143 -0.3086  0.1837
    1DIPC   PO426294  26.103  28.392   3.121  0.0811 -0.2882  0.2234
    1DIPC   GL126295  25.871  28.121   3.316  0.1004 -0.2241 -0.0275
    1DIPC   GL226296  25.693  28.414   3.459 -0.1169  0.2157  0.0506
    1DIPC   C1A26297  25.680  27.975   3.701 -0.1382 -0.1425 -0.3287
    1DIPC   D2A26298  25.896  27.895   4.034  0.2862  0.2301 -0.0068
    1DIPC   D3A26299  25.558  27.961   4.430 -0.2344 -0.0210 -0.2269
    1DIPC   C4A26300  25.680  27.753   4.846 -0.1925 -0.1926 -0.1659
    1DIPC   C1B26301  25.857  28.555   3.830  0.2478  0.4617  0.0351
    1DIPC   D2B26302  25.990  28.315   4.292 -0.2351  0.0373  0.1192
    1DIPC   D3B26303  26.181  28.507   4.613  0.2287 -0.1012 -0.0815
    1DIPC   C4B26304  26.301  28.981   4.513 -0.0215 -0.2010 -0.4371
    1DIPC   NC326305  24.099  19.381   2.762 -0.2846  0.1179  0.1248
    1DIPC   PO426306  23.940  19.697   2.908  0.1892 -0.0488 -0.0235
    1DIPC   GL126307  23.881  19.760   3.315  0.1452  0.0575  0.1374
    1DIPC   GL226308  23.678  19.507   3.501  0.0780 -0.0482  0.0206
    1DIPC   C1A26309  23.923  19.983   3.741  0.0305  0.0759  0.0382
    1DIPC   D2A26310  23.990  20.288   3.947  0.1181  0.1808  0.0155
    1DIPC   D3A26311  24.347  20.015   4.104  0.2266 -0.1551  0.0150
    1DIPC   C4A26312  24.648  20.119   4.459  0.0622  0.1546  0.3142
    1DIPC   C1B26313  23.743  19.564   3.837  0.0275  0.1514 -0.0098
    1DIPC   D2B26314  23.913  19.775   4.196 -0.3580  0.1667  0.1763
    1DIPC   D3B26315  23.624  20.067   4.424  0.0032  0.2263  0.1808
    1DIPC   C4B26316  23.284  19.977   4.758 -0.1103 -0.1637 -0.2782
    1DIPC   NC326317   8.560  23.396   2.179  0.1812  0.3915 -0.0564
    1DIPC   PO426318   8.917  23.277   2.387  0.2802 -0.0058  0.2645
    1DIPC   GL126319   9.044  23.171   2.784  0.0161  0.0860  0.0089
    1DIPC   GL226320   9.374  23.172   2.824 -0.3524 -0.0336  0.0386
    1DIPC   C1A26321   9.081  23.273   3.257  0.2247  0.1427  0.2190
    1DIPC   D2A26322   9.053  23.174   3.750  0.1842 -0.2588  0.0555
    1DIPC   D3A26323   9.401  23.114   3.601  0.0973 -0.0491  0.2784
    1DIPC   C4A26324   9.719  22.909   3.817 -0.1975  0.1268  0.1083
    1DIPC   C1B26325   9.661  23.290   3.033 -0.0510 -0.2551 -0.1394
    1DIPC   D2B26326  10.197  23.424   3.157 -0.2958 -0.2278  0.2271
    1DIPC   D3B26327   9.964  23.303   3.535 -0.1378  0.0362  0.3126
    1DIPC   C4B26328  10.317  23.249   3.799 -0.1154 -0.0941 -0.0977
    1DIPC   NC326329  20.903  29.150   2.677 -0.0507  0.2174 -0.2144
    1DIPC   PO426330  21.332  29.261   3.004  0.0841  0.0232  0.1880
    1DIPC   GL126331  21.292  29.228   3.484  0.1454 -0.0252  0.4747
    1DIPC   GL226332  21.025  29.284   3.578  0.0971  0.0341 -0.1706
    1DIPC   C1A26333  21.334  29.402   3.951 -0.1783  0.2155  0.1333
    1DIPC   D2A26334  21.319  29.237   4.360  0.0702  0.0150 -0.0445
    1DIPC   D3A26335  21.294  29.436   4.763  0.1063  0.2957 -0.1331
    1DIPC   C4A26336  21.339  29.855   4.916  0.1695  0.0313  0.1153
    1DIPC   C1B26337  20.843  29.266   4.052 -0.1671 -0.4027  0.2038
    1DIPC   D2B26338  20.879  29.539   4.494 -0.2746  0.1421 -0.1273
    1DIPC   D3B26339  20.807  29.345   4.819  0.1961 -0.1170 -0.0195
    1DIPC   C4B26340  21.002  29.220   5.166  0.1415 -0.0205 -0.0603
    1DIPC   NC326341  17.940   6.862   2.650 -0.0904 -0.3206 -0.0155
    1DIPC   PO426342  17.602   6.951   2.396 -0.1333  0.1327 -0.1070
    1DIPC   GL126343  17.554   7.015   2.916 -0.2028 -0.3388 -0.1016
    1DIPC   GL226344  17.667   7.360   2.988 -0.3041 -0.1540 -0.2774
    1DIPC   C1A26345  17.732   6.947   3.352  0.1482  0.0428  0.3303
    1DIPC   D2A26346  17.665   6.739   3.779  0.4025 -0.0310  0.3071
    1DIPC   D3A26347  17.363   7.094   3.849 -0.1262  0.0972 -0.0497
    1DIPC   C4A26348  17.171   7.185   4.288 -0.0031  0.3256  0.0789
    1DIPC   C1B26349  17.599   7.848   3.109  0.1752  0.0569  0.1261
    1DIPC   D2B26350  17.621   8.275   3.337 -0.0868 -0.2968  0.0945
    1DIPC   D3B26351  17.411   8.448   2.931  0.2540  0.4421 -0.1354
    1DIPC   C4B26352  17.229   8.817   3.020 -0.3671  0.1502  0.2297
    1DIPC   NC326353   1.889  15.630   2.139  0.2073  0.2015  0.0399
    1DIPC   PO426354   1.727  15.277   2.146  0.4038 -0.5222 -0.5751
    1DIPC   GL126355   1.814  15.091   2.565 -0.2337  0.0093  0.0199
    1DIPC   GL226356   1.515  14.979   2.777 -0.1183  0.2154  0.1983
    1DIPC   C1A26357   2.018  14.787   2.853 -0.0157 -0.0439  0.2474
    1DIPC   D2A26358   2.266  14.367   2.958  0.1189  0.0613 -0.1119
    1DIPC   D3A26359   2.141  14.014   3.068  0.0701 -0.0796  0.4209
    1DIPC   C4A26360   1.881  13.833   3.394 -0.3037  0.0307  0.0887
    1DIPC   C1B26361   1.387  14.928   3.198 -0.1862 -0.0147 -0.0639
    1DIPC   D2B26362   1.401  15.075   3.629  0.1886 -0.0007  0.0485
    1DIPC   D3B26363   1.695  15.046   3.835  0.0409 -0.0808  0.1671
    1DIPC   C4B26364   1.899  15.450   3.729  0.1191 -0.0972  0.0866
    1DIPC   NC326365  26.409   6.918   2.814  0.2275 -0.1973 -0.2004
    1DIPC   PO426366  26.734   7.277   2.903  0.0823 -0.0728 -0.1376
    1DIPC   GL126367  26.729   7.365   3.364  0.2247  0.2387 -0.1139
    1DIPC   GL226368  26.712   7.102   3.677  0.1720  0.1263 -0.0315
    1DIPC   C1A26369  26.988   7.538   3.615 -0.0428  0.1392  0.1016
    1DIPC   D2A26370  27.308   7.734   3.914  0.1564 -0.1465  0.1365
    1DIPC   D3A26371  27.614   7.827   3.682  0.2204  0.0769 -0.1342
    1DIPC   C4A26372  27.981   7.659   3.726  0.1004 -0.0677 -0.0042
    1DIPC   C1B26373  26.765   6.648   3.588 -0.1141  0.0521 -0.1083
    1DIPC   D2B26374  26.560   6.249   3.556 -0.0220 -0.1465 -0.2712
    1DIPC   D3B26375  26.362   6.146   3.885 -0.2489  0.2396 -0.0281
    1DIPC   C4B26376  25.970   6.383   4.031 -0.1596  0.4212  0.1645
    1DIPC   NC326377  16.073  28.284   3.483  0.1747  0.2560  0.2202
    1DIPC   PO426378  16.387  28.492   3.286  0.1200 -0.1600  0.1621
    1DIPC   GL126379  16.487  28.483   3.756 -0.0749  0.1324 -0.1149
    1DIPC   GL226380  16.867  28.310   3.808 -0.2212  0.0486  0.1974
    1DIPC   C1A26381  16.238  28.443   4.114  0.0516 -0.1375 -0.0653
    1DIPC   D2A26382  15.898  28.620   4.338  0.1104 -0.0462 -0.0687
    1DIPC   D3A26383  16.206  28.946   4.389 -0.0951  0.0406 -0.0294
    1DIPC   C4A26384  16.533  28.999   4.666  0.0330 -0.0416  0.0309
    1DIPC   C1B26385  17.225  28.257   4.049 -0.2147  0.2048 -0.3372
    1DIPC   D2B26386  17.627  28.092   4.000 -0.2585 -0.1996  0.1648
    1DIPC   D3B26387  17.641  28.536   4.164 -0.2185  0.1808 -0.0037
    1DIPC   C4B26388  17.384  28.709   4.496  0.0502 -0.0173 -0.2133
    1DIPC   NC326389   5.853   1.621   3.466 -0.1708 -0.2256 -0.3802
    1DIPC   PO426390   5.910   1.180   3.361  0.5005  0.0361  0.1742
    1DIPC   GL126391   5.898   1.162   3.754  0.0035 -0.1268 -0.2863
    1DIPC   GL226392   5.520   1.325   3.880 -0.0339  0.1186 -0.2777
    1DIPC   C1A26393   5.865   1.114   4.206 -0.2228  0.0097  0.2059
    1DIPC   D2A26394   5.845   0.939   4.626 -0.1071 -0.1751 -0.0727
    1DIPC   D3A26395   5.864   1.138   5.020 -0.0320 -0.1680 -0.2012
    1DIPC   C4A26396   6.142   1.044   5.358 -0.0268  0.1983 -0.1701
    1DIPC   C1B26397   5.438   1.514   4.242  0.0899 -0.3195  0.1028
    1DIPC   D2B26398   5.657   1.491   4.646  0.0001  0.1125 -0.1002
    1DIPC   D3B26399   5.659   1.648   5.063  0.0129  0.1501  0.0848
    1DIPC   C4B26400   5.781   1.475   5.423 -0.2405  0.3740 -0.0127
    1DIPC   NC326401   0.298  18.953   2.393 -0.2461  0.1853 -0.0929
    1DIPC   PO426402   0.102  19.310   2.438  0.0301  0.3224 -0.2059
    1DIPC   GL126403   0.170  19.573   2.808 -0.1829  0.3381  0.1180
    1DIPC   GL226404   0.482  19.839   2.718  0.1011  0.1039 -0.0035
    1DIPC   C1A26405   0.282  19.817   3.211  0.1372  0.2619 -0.1467
    1DIPC   D2A26406   0.569  19.907   3.544  0.3260 -0.0763  0.1159
    1DIPC   D3A26407   0.770  20.200   3.935 -0.1369  0.0159  0.0971
    1DIPC   C4A26408   0.940  20.518   3.830  0.2845 -0.3563  0.1667
    1DIPC   C1B26409   0.714  20.047   3.036 -0.1547 -0.2354  0.0822
    1DIPC   D2B26410   1.109  19.980   3.198 -0.0589  0.1601 -0.0203
    1DIPC   D3B26411   1.527  20.158   3.050 -0.2643 -0.2221 -0.1446
    1DIPC   C4B26412   1.941  19.872   3.213  0.2905 -0.2340 -0.0384
    1DIPC   NC326413   6.644  29.139   3.311  0.1406  0.1102 -0.1568
    1DIPC   PO426414   7.071  29.007   3.401  0.0481 -0.0438  0.0561
    1DIPC   GL126415   7.031  29.035   3.879  0.1649  0.0096 -0.0303
    1DIPC   GL226416   7.197  28.748   3.914 -0.4109  0.1248 -0.1203
    1DIPC   C1A26417   7.237  29.077   4.313  0.1150  0.1278 -0.0273
    1DIPC   D2A26418   7.092  29.084   4.704 -0.1313 -0.4210  0.2322
    1DIPC   D3A26419   7.363  28.895   4.922  0.2787 -0.0075 -0.2394
    1DIPC   C4A26420   7.348  29.091   5.306 -0.2693  0.0768  0.3251
    1DIPC   C1B26421   7.361  28.591   4.340  0.0564 -0.0208 -0.3378
    1DIPC   D2B26422   7.305  28.375   4.729 -0.0071  0.0696 -0.0165
    1DIPC   D3B26423   7.138  28.158   4.350  0.0116  0.2682 -0.0935
    1DIPC   C4B26424   6.904  28.292   3.985  0.0492  0.1713  0.0097
    1DIPC   NC326425  19.317   6.566   3.085  0.0022  0.0718  0.3684
    1DIPC   PO426426  19.011   6.411   2.671 -0.1989  0.0342 -0.0400
    1DIPC   GL126427  18.884   6.287   3.100  0.0507 -0.1243 -0.2654
    1DIPC   GL226428  18.807   6.617   3.146  0.0365  0.1431 -0.1174
    1DIPC   C1A26429  18.783   6.156   3.475  0.3087  0.0331  0.0450
    1DIPC   D2A26430  18.819   6.034   3.827 -0.2192 -0.0237 -0.0559
    1DIPC   D3A26431  18.503   6.127   4.051  0.0319  0.0335 -0.0041
    1DIPC   C4A26432  18.552   6.320   4.452 -0.0680  0.0153 -0.1216
    1DIPC   C1B26433  18.870   6.666   3.589  0.1089  0.1848 -0.2287
    1DIPC   D2B26434  18.811   6.527   4.004  0.2227 -0.2023  0.2036
    1DIPC   D3B26435  18.361   6.649   3.979 -0.1666  0.3707  0.0515
    1DIPC   C4B26436  18.077   6.444   3.754 -0.2244  0.1645  0.0983
    1DIPC   NC326437   5.330  11.585   2.265 -0.1922 -0.1698  0.1600
    1DIPC   PO426438   5.196  11.974   2.494 -0.0130  0.2320  0.0777
    1DIPC   GL126439   5.247  12.126   2.943 -0.4730 -0.0195 -0.0148
    1DIPC   GL226440   4.861  11.995   3.052 -0.3468  0.3545 -0.0692
    1DIPC   C1A26441   5.198  12.281   3.338  0.1029  0.0203  0.1717
    1DIPC   D2A26442   4.871  12.346   3.631 -0.0092 -0.1384 -0.0623
    1DIPC   D3A26443   4.918  12.467   4.100  0.1324 -0.2235  0.2003
    1DIPC   C4A26444   4.684  12.219   4.447  0.2769 -0.2160 -0.0375
    1DIPC   C1B26445   4.585  11.957   3.441  0.0257  0.0449 -0.3305
    1DIPC   D2B26446   4.186  12.135   3.674 -0.4891 -0.0242 -0.2646
    1DIPC   D3B26447   4.296  12.338   3.342 -0.3113  0.0293  0.0534
    1DIPC   C4B26448   4.028  12.696   3.195 -0.0250 -0.1105  0.1246
    1DIPC   NC326449  22.952  16.906   1.950 -0.2556 -0.2328 -0.4154
    1DIPC   PO426450  23.456  16.731   2.006  0.1165  0.0357  0.0291
    1DIPC   GL126451  23.684  16.636   2.374  0.1309 -0.2154  0.0176
    1DIPC   GL226452  23.868  16.889   2.498  0.1195  0.0171  0.1825
    1DIPC   C1A26453  23.895  16.473   2.806  0.1929  0.1463 -0.1770
    1DIPC   D2A26454  23.979  16.289   3.190  0.2289 -0.0094 -0.1880
    1DIPC   D3A26455  23.787  16.269   3.628 -0.0031  0.0118  0.0741
    1DIPC   C4A26456  24.081  16.402   3.930  0.0461  0.2044  0.1584
    1DIPC   C1B26457  24.224  16.849   2.758  0.2086 -0.1635  0.1084
    1DIPC   D2B26458  24.424  16.571   2.988  0.1485 -0.0482 -0.0999
    1DIPC   D3B26459  24.286  16.380   2.568  0.1209 -0.0487  0.2580
    1DIPC   C4B26460  23.997  16.273   2.237 -0.1801  0.0223  0.1419
    1DIPC   NC326461  13.968  25.782   3.118 -0.0717  0.2606  0.1776
    1DIPC   PO426462  14.286  25.633   3.126  0.1958 -0.3804 -0.4574
    1DIPC   GL126463  14.228  25.672   3.612 -0.0873  0.2757 -0.0142
    1DIPC   GL226464  14.206  25.961   3.758  0.0760 -0.1675  0.2370
    1DIPC   C1A26465  13.997  25.372   3.908  0.0024  0.2211  0.4557
    1DIPC   D2A26466  13.976  25.034   4.121  0.0455 -0.1171 -0.0100
    1DIPC   D3A26467  13.794  24.979   4.492 -0.0949  0.0412  0.0916
    1DIPC   C4A26468  13.466  25.332   4.521  0.0369 -0.1047  0.3347
    1DIPC   C1B26469  14.003  26.369   3.863 -0.0185 -0.1135 -0.0263
    1DIPC   D2B26470  13.669  26.656   3.607  0.1685  0.2535  0.0315
    1DIPC   D3B26471  13.444  26.311   3.775 -0.1478  0.0439  0.2997
    1DIPC   C4B26472  13.154  26.210   3.406  0.0219 -0.2988  0.4770
    1DIPC   NC326473   7.691   5.981   3.126  0.1810 -0.0614  0.1200
    1DIPC   PO426474   7.336   5.703   3.297 -0.0173 -0.3513  0.1744
    1DIPC   GL126475   7.609   5.653   3.618  0.0061 -0.0644 -0.2330
    1DIPC   GL226476   7.902   5.434   3.682 -0.3548  0.1526 -0.0078
    1DIPC   C1A26477   7.889   5.746   4.043 -0.0820 -0.2007 -0.1251
    1DIPC   D2A26478   8.023   5.727   4.410 -0.0914 -0.3663  0.3290
    1DIPC   D3A26479   8.056   5.958   4.723  0.2099 -0.0480 -0.0783
    1DIPC   C4A26480   8.276   5.888   5.044 -0.0915  0.1163 -0.0465
    1DIPC   C1B26481   7.792   5.212   4.033 -0.1206 -0.0877  0.0139
    1DIPC   D2B26482   7.840   5.184   4.532 -0.0366  0.0725 -0.2863
    1DIPC   D3B26483   8.020   5.178   4.928 -0.3858 -0.0210 -0.0505
    1DIPC   C4B26484   8.124   4.857   5.128  0.0522 -0.0054  0.1121
    1DIPC   NC326485  22.007  28.644   2.576 -0.1621 -0.0299 -0.2383
    1DIPC   PO426486  22.126  28.322   2.829  0.0592  0.0392 -0.0882
    1DIPC   GL126487  22.152  28.211   3.230  0.1163 -0.2843 -0.0668
    1DIPC   GL226488  22.301  28.511   3.345  0.1606 -0.0020  0.0527
    1DIPC   C1A26489  22.148  28.041   3.715  0.1851 -0.0236  0.3292
    1DIPC   D2A26490  21.803  28.095   3.982 -0.1207  0.0829 -0.1929
    1DIPC   D3A26491  21.915  28.191   4.260 -0.3156 -0.1238  0.2161
    1DIPC   C4A26492  21.736  28.118   4.652 -0.0708  0.0509  0.2466
    1DIPC   C1B26493  22.473  28.420   3.752 -0.0654 -0.1370 -0.0835
    1DIPC   D2B26494  22.845  28.377   3.936  0.3052  0.0033 -0.1277
    1DIPC   D3B26495  23.051  27.957   3.761  0.0436  0.1068  0.0279
    1DIPC   C4B26496  23.172  27.631   4.013  0.0605  0.2112 -0.4741
    1DIPC   NC326497  17.087   2.304   2.892 -0.0199 -0.0737  0.3109
    1DIPC   PO426498  17.527   2.317   3.048 -0.1346 -0.0056  0.0572
    1DIPC   GL126499  17.236   2.583   3.352  0.1450 -0.1664 -0.0253
    1DIPC   GL226500  17.012   2.372   3.551  0.1398  0.0497 -0.1212
    1DIPC   C1A26501  17.079   2.957   3.450 -0.0648  0.0431  0.0445
    1DIPC   D2A26502  17.040   3.148   3.817 -0.2599  0.2640  0.1395
    1DIPC   D3A26503  16.975   3.321   4.166 -0.0311 -0.1024 -0.3547
    1DIPC   C4A26504  16.880   3.066   4.546 -0.1861 -0.0233  0.2436
    1DIPC   C1B26505  17.142   2.600   3.892 -0.1188  0.1120 -0.2732
    1DIPC   D2B26506  17.256   2.898   4.269  0.1459  0.0712  0.3044
    1DIPC   D3B26507  17.341   3.346   4.501  0.0334  0.0933  0.0817
    1DIPC   C4B26508  17.195   3.689   4.648  0.2148  0.0058 -0.0335
    1DIPC   NC326509   3.807   5.768   3.149  0.0724 -0.0684 -0.3037
    1DIPC   PO426510   4.151   5.925   3.164  0.0720 -0.0584 -0.0399
    1DIPC   GL126511   4.137   6.108   3.585  0.1048  0.0357  0.1078
    1DIPC   GL226512   4.054   6.396   3.641  0.2510  0.1939  0.0544
    1DIPC   C1A26513   3.859   6.033   3.977 -0.0689  0.1462  0.1012
    1DIPC   D2A26514   3.716   5.903   4.318 -0.1134 -0.2792  0.2926
    1DIPC   D3A26515   3.748   6.030   4.811 -0.3840 -0.0490 -0.1252
    1DIPC   C4A26516   3.385   6.083   5.072 -0.0818  0.2079  0.1062
    1DIPC   C1B26517   4.215   6.291   4.192  0.0284 -0.3046  0.0119
    1DIPC   D2B26518   4.558   6.208   4.437  0.1086  0.2235 -0.2027
    1DIPC   D3B26519   4.462   6.681   4.504 -0.2230  0.0644  0.1150
    1DIPC   C4B26520   4.092   6.840   4.339 -0.0857  0.1902  0.0436
    1DIPC   NC326521   7.381   5.182   3.424  0.1683 -0.0731 -0.3435
    1DIPC   PO426522   7.080   4.912   3.488 -0.0762  0.3117 -0.1685
    1DIPC   GL126523   7.206   4.819   3.883 -0.0251  0.0131  0.2672
    1DIPC   GL226524   6.933   4.942   4.050 -0.2637 -0.2139 -0.1768
    1DIPC   C1A26525   7.417   4.939   4.353  0.2364  0.0348  0.1154
    1DIPC   D2A26526   7.182   5.059   4.773 -0.1768 -0.1245 -0.0102
    1DIPC   D3A26527   7.403   5.328   5.145  0.0597  0.3127 -0.0386
    1DIPC   C4A26528   7.610   5.546   5.539  0.1602  0.2751  0.0326
    1DIPC   C1B26529   6.888   4.958   4.411  0.1097  0.0982 -0.0896
    1DIPC   D2B26530   6.541   5.121   4.700  0.1468 -0.0686 -0.1441
    1DIPC   D3B26531   6.317   4.932   5.078  0.0592 -0.0161  0.2190
    1DIPC   C4B26532   5.890   5.010   5.229  0.0323  0.0304  0.1502
    1DIPC   NC326533  16.712   3.906   2.356  0.0279  0.0151 -0.2110
    1DIPC   PO426534  16.604   4.229   2.489  0.1618  0.2509  0.0454
    1DIPC   GL126535  16.944   4.108   2.819  0.0605  0.0998  0.1334
    1DIPC   GL226536  16.967   4.442   2.914  0.4400  0.0935  0.1153
    1DIPC   C1A26537  17.091   4.122   3.326  0.0504  0.0931  0.3451
    1DIPC   D2A26538  17.198   4.177   3.824 -0.1801  0.1420 -0.1253
    1DIPC   D3A26539  17.651   4.117   3.983  0.0480  0.0055  0.0761
    1DIPC   C4A26540  17.696   4.161   4.375  0.4236  0.1355  0.0001
    1DIPC   C1B26541  16.595   4.249   3.233 -0.0051  0.0198 -0.0340
    1DIPC   D2B26542  16.670   4.428   3.677 -0.1582 -0.1203  0.1468
    1DIPC   D3B26543  16.809   4.367   4.066  0.2600  0.0617 -0.2598
    1DIPC   C4B26544  17.033   4.723   4.279 -0.3060  0.2183  0.2484
    1DIPC   NC326545  20.183  24.287   3.300 -0.0464 -0.0368 -0.2765
    1DIPC   PO426546  20.133  24.742   3.333 -0.4215  0.0222  0.0842
    1DIPC   GL126547  20.005  24.991   3.718 -0.0863 -0.1925 -0.1092
    1DIPC   GL226548  19.724  24.986   3.919 -0.1253 -0.0369  0.1961
    1DIPC   C1A26549  20.233  25.245   4.109 -0.0283  0.0697  0.1097
    1DIPC   D2A26550  20.336  25.538   4.455  0.2860  0.1424 -0.1799
    1DIPC   D3A26551  20.355  25.381   4.899 -0.0164 -0.0669 -0.0408
    1DIPC   C4A26552  20.190  25.571   5.171 -0.1427 -0.0843  0.2336
    1DIPC   C1B26553  19.588  24.928   4.299  0.0631  0.2900  0.1027
    1DIPC   D2B26554  19.283  24.960   4.605 -0.1864  0.0798 -0.0559
    1DIPC   D3B26555  18.986  25.107   4.955  0.2030  0.2573  0.0108
    1DIPC   C4B26556  18.727  25.476   4.939 -0.0829 -0.2100  0.1190
    1DIPC   NC326557   0.677   2.058   2.909  0.2478 -0.2410  0.0711
    1DIPC   PO426558   0.907   2.161   3.237 -0.0565 -0.0951  0.0582
    1DIPC   GL126559   1.091   2.054   3.623  0.4418 -0.0796  0.1591
    1DIPC   GL226560   1.038   1.725   3.648  0.4639 -0.2498  0.0390
    1DIPC   C1A26561   1.136   2.051   4.086 -0.1435  0.1837  0.3385
    1DIPC   D2A26562   0.918   1.909   4.450 -0.1427  0.0614 -0.2680
    1DIPC   D3A26563   0.554   1.971   4.417  0.1159 -0.1801 -0.0357
    1DIPC   C4A26564   0.304   1.847   4.822 -0.0747  0.1404  0.0026
    1DIPC   C1B26565   1.060   1.543   4.200 -0.3953  0.3356  0.2234
    1DIPC   D2B26566   1.231   1.399   4.455 -0.1726 -0.0179 -0.0450
    1DIPC   D3B26567   1.257   1.678   4.710 -0.0698  0.0694 -0.0455
    1DIPC   C4B26568   0.833   1.726   4.917  0.0174 -0.1849 -0.0560
    1DIPC   NC326569  22.558  10.173   2.233 -0.2909  0.2124  0.2320
    1DIPC   PO426570  22.431  10.565   2.373  0.0891 -0.0198 -0.2117
    1DIPC   GL126571  22.636  10.747   2.738  0.0555  0.0979 -0.1340
    1DIPC   GL226572  22.799  11.046   2.810 -0.1017 -0.1073  0.0637
    1DIPC   C1A26573  22.721  10.594   3.100 -0.0103 -0.1547  0.2727
    1DIPC   D2A26574  22.772  10.387   3.445  0.2118 -0.0719  0.3515
    1DIPC   D3A26575  22.922  10.723   3.644  0.0632 -0.0397 -0.2799
    1DIPC   C4A26576  22.675  10.930   3.988 -0.3533  0.2391 -0.1230
    1DIPC   C1B26577  23.064  10.977   3.255  0.0230 -0.1148  0.0863
    1DIPC   D2B26578  23.501  10.980   3.371 -0.0060 -0.1973  0.0562
    1DIPC   D3B26579  23.424  10.674   3.697 -0.2067  0.1258  0.0338
    1DIPC   C4B26580  23.486  10.414   4.006  0.2732  0.0460  0.4050
    1DIPC   NC326581   3.293   1.097   3.087 -0.1151  0.0831  0.0641
    1DIPC   PO426582   2.911   1.405   2.933  0.0113 -0.1569  0.0309
    1DIPC   GL126583   2.888   1.348   3.399 -0.0296  0.1505  0.2768
    1DIPC   GL226584   2.885   1.030   3.554 -0.1383 -0.2338  0.1333
    1DIPC   C1A26585   2.633   1.526   3.725 -0.1001  0.2258  0.2580
    1DIPC   D2A26586   2.312   1.366   3.935 -0.0514  0.3306  0.1228
    1DIPC   D3A26587   2.016   1.643   3.900  0.1728 -0.0559  0.0393
    1DIPC   C4A26588   2.043   1.876   4.168 -0.0979  0.0134  0.1348
    1DIPC   C1B26589   2.848   1.196   3.958  0.0665 -0.1413  0.0270
    1DIPC   D2B26590   2.564   1.237   4.350 -0.0536 -0.0219  0.2554
    1DIPC   D3B26591   2.731   1.490   4.642 -0.1226  0.0509 -0.1475
    1DIPC   C4B26592   2.522   1.804   4.894  0.1108 -0.2937  0.0454
    1DIPC   NC326593  24.799  11.663   2.255 -0.0104  0.1101 -0.1019
    1DIPC   PO426594  24.756  11.217   2.310  0.0514 -0.0834 -0.1740
    1DIPC   GL126595  24.779  11.281   2.760  0.1599  0.2568 -0.1499
    1DIPC   GL226596  25.057  11.191   2.794 -0.2885 -0.1891 -0.2083
    1DIPC   C1A26597  24.836  11.472   3.208 -0.2222 -0.0793 -0.1053
    1DIPC   D2A26598  24.878  11.334   3.513  0.4559  0.5181  0.0596
    1DIPC   D3A26599  25.286  11.451   3.496  0.6325 -0.2423  0.1681
    1DIPC   C4A26600  25.325  11.494   3.076  0.0938 -0.1852 -0.2754
    1DIPC   C1B26601  25.210  11.004   3.207  0.0147  0.4038  0.1014
    1DIPC   D2B26602  24.977  10.863   3.529 -0.1425 -0.0245  0.0409
    1DIPC   D3B26603  24.917  10.582   3.819  0.2784  0.1026  0.0233
    1DIPC   C4B26604  25.271  10.546   4.150  0.2356  0.0303 -0.0883
    1DIPC   NC326605   5.087  28.782   3.461 -0.3587  0.0034 -0.2190
    1DIPC   PO426606   5.358  28.415   3.239 -0.0671 -0.3427  0.0004
    1DIPC   GL126607   5.501  28.450   3.591 -0.1329  0.2417 -0.1867
    1DIPC   GL226608   5.384  28.554   3.858  0.0731  0.2431  0.2334
    1DIPC   C1A26609   5.735  28.198   3.842 -0.0287  0.0925 -0.1454
    1DIPC   D2A26610   5.814  28.082   4.236 -0.0134  0.0302  0.1009
    1DIPC   D3A26611   6.196  27.892   4.448  0.1063  0.0614 -0.0064
    1DIPC   C4A26612   6.304  27.918   4.912 -0.1335 -0.1899  0.1004
    1DIPC   C1B26613   5.590  28.606   4.237  0.3898  0.3189 -0.0251
    1DIPC   D2B26614   5.688  28.981   4.359 -0.0718 -0.0886  0.1345
    1DIPC   D3B26615   5.653  28.813   4.712 -0.1408  0.1697  0.2211
    1DIPC   C4B26616   5.228  28.916   4.857 -0.1842  0.1248 -0.0728
    1DIPC   NC326617   2.356  10.207   3.043  0.0938  0.1230  0.0830
    1DIPC   PO426618   2.755  10.222   2.814  0.1501  0.0998 -0.2071
    1DIPC   GL126619   2.743  10.242   3.332  0.0131  0.1758  0.2960
    1DIPC   GL226620   2.758  10.506   3.322  0.1463  0.2281 -0.3211
    1DIPC   C1A26621   3.043  10.148   3.774  0.0538 -0.1716 -0.0337
    1DIPC   D2A26622   3.114  10.223   4.332  0.0054  0.0892 -0.3739
    1DIPC   D3A26623   3.316  10.122   4.568 -0.2795 -0.2127  0.6074
    1DIPC   C4A26624   3.192   9.643   4.709 -0.0591 -0.2988  0.3069
    1DIPC   C1B26625   2.713  10.642   3.668  0.0822  0.1736 -0.2404
    1DIPC   D2B26626   3.064  10.653   3.946 -0.1758 -0.2626  0.1561
    1DIPC   D3B26627   2.918  10.832   4.256  0.0742 -0.2031  0.0608
    1DIPC   C4B26628   3.162  10.657   4.650  0.2735 -0.1710 -0.0591
    1DIPC   NC326629  28.062  13.164   2.016 -0.3515  0.3494  0.0047
    1DIPC   PO426630  27.762  13.304   2.268  0.0121 -0.0809 -0.0432
    1DIPC   GL126631  27.822  13.305   2.686  0.0706  0.0152  0.0233
    1DIPC   GL226632  27.600  13.204   2.962  0.0122  0.1100 -0.1450
    1DIPC   C1A26633  28.118  13.105   2.943 -0.1475 -0.3401  0.2005
    1DIPC   D2A26634  28.559  13.068   2.828  0.0545 -0.1085 -0.1274
    1DIPC   D3A26635  28.669  13.375   3.107 -0.1613 -0.1084 -0.0042
    1DIPC   C4A26636  28.343  13.351   3.427  0.0629 -0.1135 -0.1160
    1DIPC   C1B26637  27.769  13.178   3.347 -0.1689  0.2280  0.0359
    1DIPC   D2B26638  27.990  13.022   3.717  0.0660  0.1687  0.0775
    1DIPC   D3B26639  28.011  13.480   3.807 -0.0355 -0.0469  0.1736
    1DIPC   C4B26640  28.167  13.643   4.208 -0.2148  0.0593  0.0823
    1DIPC   NC326641  19.655   5.830   2.429 -0.1876 -0.0290 -0.2920
    1DIPC   PO426642  19.594   5.601   2.812  0.0162 -0.0632 -0.2424
    1DIPC   GL126643  19.456   5.616   3.211 -0.0451 -0.4348  0.0579
    1DIPC   GL226644  19.177   5.679   3.256 -0.0014 -0.0384  0.0739
    1DIPC   C1A26645  19.604   5.304   3.608  0.1828 -0.0322 -0.1332
    1DIPC   D2A26646  19.630   5.125   4.036  0.1089  0.1506  0.1382
    1DIPC   D3A26647  19.354   5.268   4.367  0.2240  0.0941  0.0499
    1DIPC   C4A26648  19.398   5.710   4.508 -0.2362  0.0668 -0.0105
    1DIPC   C1B26649  19.280   5.739   3.742 -0.3638 -0.3637  0.0988
    1DIPC   D2B26650  19.100   5.677   4.099 -0.3529 -0.0734 -0.2920
    1DIPC   D3B26651  19.172   5.984   4.144 -0.1670  0.0369 -0.1622
    1DIPC   C4B26652  19.660   6.058   4.293  0.1010 -0.0259 -0.0986
    1DIPC   NC326653   1.403  16.830   1.992  0.5856  0.0794  0.1058
    1DIPC   PO426654   1.001  16.849   2.178  0.1033 -0.0185  0.0470
    1DIPC   GL126655   0.818  17.016   2.511 -0.0360  0.2605  0.0828
    1DIPC   GL226656   1.013  17.062   2.771  0.1222 -0.2099  0.0971
    1DIPC   C1A26657   0.336  17.015   2.649 -0.1719  0.3475  0.1767
    1DIPC   D2A26658   0.066  16.848   2.917  0.0091  0.2612 -0.2910
    1DIPC   D3A26659   0.152  17.052   3.313 -0.0257 -0.2374 -0.2006
    1DIPC   C4A26660   0.239  17.424   3.217  0.3009  0.2845  0.1522
    1DIPC   C1B26661   0.737  17.070   3.076  0.0595 -0.1550 -0.1442
    1DIPC   D2B26662   0.700  16.954   3.495 -0.3790  0.5353 -0.2700
    1DIPC   D3B26663   0.793  17.143   3.948  0.0104  0.2093 -0.0050
    1DIPC   C4B26664   1.157  17.028   4.084 -0.2414  0.1576  0.0720
    1DIPC   NC326665  20.466  25.096   2.940  0.2102 -0.0559  0.0885
    1DIPC   PO426666  20.705  24.676   3.180  0.3889  0.0993  0.1268
    1DIPC   GL126667  20.579  24.828   3.603  0.1953 -0.0820 -0.2304
    1DIPC   GL226668  20.882  25.094   3.695  0.2881  0.1454 -0.1003
    1DIPC   C1A26669  20.601  24.921   4.108 -0.0013 -0.0504  0.0851
    1DIPC   D2A26670  20.576  25.065   4.549  0.2293 -0.0590 -0.1078
    1DIPC   D3A26671  20.400  24.823   4.889 -0.2177  0.1677  0.1161
    1DIPC   C4A26672  20.026  24.974   5.138 -0.0032  0.0781 -0.1304
    1DIPC   C1B26673  20.986  24.646   3.917  0.1033 -0.0558 -0.1474
    1DIPC   D2B26674  21.173  24.448   4.252  0.0316 -0.2827  0.0195
    1DIPC   D3B26675  20.853  24.629   4.553  0.1275 -0.0021  0.1317
    1DIPC   C4B26676  20.784  24.459   4.976 -0.0815  0.0337 -0.3796
    1DIPC   NC326677   8.824  22.457   1.887 -0.0233  0.0278 -0.0522
    1DIPC   PO426678   9.136  22.340   2.125 -0.0218 -0.0070 -0.0192
    1DIPC   GL126679   9.055  22.444   2.548 -0.1356 -0.2016 -0.2080
    1DIPC   GL226680   9.309  22.580   2.710  0.1269  0.2011  0.1019
    1DIPC   C1A26681   8.919  22.421   3.000  0.1155  0.0446  0.2132
    1DIPC   D2A26682   8.834  22.345   3.485  0.0448 -0.1340  0.0319
    1DIPC   D3A26683   8.507  22.104   3.610 -0.0494 -0.1670 -0.1196
    1DIPC   C4A26684   8.135  22.042   3.888 -0.0193 -0.0272 -0.1454
    1DIPC   C1B26685   9.299  22.710   3.146 -0.1751 -0.0705 -0.1902
    1DIPC   D2B26686   9.321  22.607   3.612  0.0465  0.2914  0.0823
    1DIPC   D3B26687   9.282  22.665   4.043  0.0611  0.0052 -0.0936
    1DIPC   C4B26688   9.585  22.749   4.290  0.0717 -0.3343 -0.2120
    1DIPC   NC326689   4.972   1.380   3.004 -0.0224 -0.0316  0.1415
    1DIPC   PO426690   5.349   1.443   3.314  0.0163  0.1693 -0.4416
    1DIPC   GL126691   5.316   1.795   3.681  0.2968  0.1187  0.1211
    1DIPC   GL226692   5.092   1.680   3.837 -0.1889 -0.3685 -0.1777
    1DIPC   C1A26693   5.283   2.041   4.162 -0.2547  0.0069  0.0865
    1DIPC   D2A26694   5.552   1.997   4.468 -0.0448  0.2384  0.1305
    1DIPC   D3A26695   5.229   2.184   4.748  0.1818  0.0682 -0.0785
    1DIPC   C4A26696   4.935   2.247   5.127 -0.1079 -0.0984  0.2284
    1DIPC   C1B26697   5.017   1.211   3.945  0.2129 -0.0826  0.3519
    1DIPC   D2B26698   4.976   1.059   4.272  0.0500  0.1740 -0.2001
    1DIPC   D3B26699   5.342   0.965   4.510  0.1612 -0.1473 -0.0518
    1DIPC   C4B26700   5.518   0.576   4.446  0.0985  0.2038  0.1310
    1DIPC   NC326701   4.269   4.343   2.959  0.0837 -0.1510 -0.0269
    1DIPC   PO426702   3.955   4.367   3.263  0.0030 -0.0942 -0.1602
    1DIPC   GL126703   4.124   4.461   3.724  0.1569  0.0045  0.3136
    1DIPC   GL226704   4.083   4.744   3.862 -0.1493 -0.0646 -0.0104
    1DIPC   C1A26705   4.283   4.338   4.038 -0.0280 -0.0086 -0.2551
    1DIPC   D2A26706   4.539   4.042   4.108 -0.0190 -0.2867  0.0487
    1DIPC   D3A26707   4.341   3.674   4.186 -0.0548 -0.0030  0.0793
    1DIPC   C4A26708   4.516   3.293   4.096 -0.1017 -0.0953  0.0288
    1DIPC   C1B26709   4.122   5.149   4.010 -0.0460  0.1940  0.0587
    1DIPC   D2B26710   3.931   5.549   3.892  0.0945  0.0021  0.1879
    1DIPC   D3B26711   3.514   5.464   4.109  0.1291 -0.0361  0.0999
    1DIPC   C4B26712   3.214   5.689   4.097  0.1698  0.1249 -0.3473
    1DIPC   NC326713  26.101  17.807   2.433 -0.2875 -0.1151 -0.2463
    1DIPC   PO426714  26.334  17.467   2.496  0.0293  0.1677  0.0218
    1DIPC   GL126715  26.067  17.410   2.784  0.0111 -0.1067 -0.1080
    1DIPC   GL226716  26.163  17.083   2.843 -0.2353  0.1458 -0.2036
    1DIPC   C1A26717  25.791  17.230   3.141  0.3540 -0.2985 -0.2773
    1DIPC   D2A26718  25.832  17.261   3.563 -0.0074 -0.2098  0.0754
    1DIPC   D3A26719  25.561  17.523   3.887  0.2154 -0.1218  0.1642
    1DIPC   C4A26720  25.359  17.856   3.757 -0.1709  0.0554 -0.3767
    1DIPC   C1B26721  26.251  17.162   3.256 -0.0457 -0.0039  0.0212
    1DIPC   D2B26722  26.284  17.309   3.751 -0.2944  0.0197 -0.2643
    1DIPC   D3B26723  26.053  17.489   4.006  0.0049 -0.0077  0.1683
    1DIPC   C4B26724  26.250  17.762   4.301 -0.2729  0.1721 -0.6024
    1DIPC   NC326725  18.922   1.196   2.791 -0.2858 -0.3752 -0.0139
    1DIPC   PO426726  18.621   1.056   3.068 -0.3633  0.1979 -0.0920
    1DIPC   GL126727  18.510   1.026   3.503 -0.3476 -0.0938  0.0502
    1DIPC   GL226728  18.790   1.103   3.576  0.0141  0.1712  0.0071
    1DIPC   C1A26729  18.262   1.109   3.917  0.0569 -0.0282 -0.0895
    1DIPC   D2A26730  17.823   0.898   4.022  0.0097  0.2708  0.1372
    1DIPC   D3A26731  17.899   0.665   4.387 -0.2597 -0.1296  0.2710
    1DIPC   C4A26732  17.643   0.793   4.704 -0.0821 -0.0679 -0.0420
    1DIPC   C1B26733  18.737   1.009   4.005  0.2565 -0.0289  0.2921
    1DIPC   D2B26734  18.818   0.671   4.315  0.0482 -0.0138 -0.0654
    1DIPC   D3B26735  18.435   0.893   4.365 -0.0659  0.1922 -0.0759
    1DIPC   C4B26736  18.435   1.234   4.723 -0.0550 -0.1916  0.1738
    1DIPC   NC326737   1.000  21.932   1.958  0.1008 -0.1181  0.0886
    1DIPC   PO426738   0.938  21.531   2.114  0.0490 -0.1488  0.0666
    1DIPC   GL126739   0.784  21.484   2.474 -0.2418 -0.2292 -0.0377
    1DIPC   GL226740   0.443  21.481   2.556  0.0190  0.1988  0.0848
    1DIPC   C1A26741   0.955  21.254   2.793 -0.3068 -0.0462 -0.3424
    1DIPC   D2A26742   1.167  21.023   3.116  0.0326  0.2387  0.3216
    1DIPC   D3A26743   1.115  20.874   3.490  0.1786 -0.0602  0.1564
    1DIPC   C4A26744   1.327  20.864   3.929  0.1311 -0.2335 -0.1715
    1DIPC   C1B26745   0.355  21.730   2.968  0.2391  0.0372  0.0088
    1DIPC   D2B26746   0.019  21.861   3.271  0.3309  0.4238  0.3633
    1DIPC   D3B26747   0.425  21.679   3.472 -0.2341  0.2115 -0.1306
    1DIPC   C4B26748   0.376  21.490   3.902  0.2047  0.1596  0.2008
    1DIPC   NC326749  24.487   9.590   2.810  0.2249  0.2015 -0.0846
    1DIPC   PO426750  24.230   9.196   2.650 -0.0869  0.0447 -0.1483
    1DIPC   GL126751  24.291   9.157   3.119 -0.2475  0.0350  0.3307
    1DIPC   GL226752  24.198   9.496   3.178 -0.1459 -0.0868  0.1742
    1DIPC   C1A26753  24.475   9.080   3.435 -0.0269  0.2770  0.4216
    1DIPC   D2A26754  24.728   9.045   3.755 -0.0249  0.1959  0.0274
    1DIPC   D3A26755  24.668   9.266   3.958 -0.1117  0.0252  0.2256
    1DIPC   C4A26756  24.705   9.244   4.416 -0.1870 -0.1021 -0.1079
    1DIPC   C1B26757  24.308   9.585   3.528  0.1228  0.1560 -0.0164
    1DIPC   D2B26758  24.051   9.664   3.868  0.2432  0.0033  0.0778
    1DIPC   D3B26759  24.312   9.557   4.238 -0.1912 -0.0229  0.1121
    1DIPC   C4B26760  24.414   9.967   4.495  0.0161  0.1739 -0.0277
    1DIPC   NC326761  10.984  26.759   2.381  0.0615  0.0100 -0.2505
    1DIPC   PO426762  11.134  26.591   2.783  0.3049 -0.2003 -0.0324
    1DIPC   GL126763  10.875  26.446   3.141  0.0966 -0.0532  0.1244
    1DIPC   GL226764  11.026  26.281   3.296  0.0530 -0.1224  0.3174
    1DIPC   C1A26765  10.532  26.535   3.430  0.0165  0.1226 -0.1106
    1DIPC   D2A26766  10.205  26.311   3.632 -0.0908  0.0621  0.2520
    1DIPC   D3A26767  10.289  26.020   3.922 -0.3105  0.0388 -0.2071
    1DIPC   C4A26768  10.542  26.040   4.212 -0.0314  0.0357  0.0836
    1DIPC   C1B26769  10.956  26.525   3.671  0.0702 -0.1216 -0.1005
    1DIPC   D2B26770  10.753  26.468   3.966 -0.3352 -0.1647  0.0483
    1DIPC   D3B26771  10.276  26.536   4.125 -0.1025 -0.2655 -0.1877
    1DIPC   C4B26772  10.088  26.265   4.334  0.1413 -0.1210 -0.0757
    1DIPC   NC326773  19.941   2.429   3.274 -0.2788 -0.0628 -0.1250
    1DIPC   PO426774  19.777   2.824   3.186 -0.0028  0.3171 -0.1066
    1DIPC   GL126775  19.505   3.176   3.430 -0.0918  0.0286 -0.0863
    1DIPC   GL226776  19.451   3.208   3.727 -0.4143  0.3178  0.1597
    1DIPC   C1A26777  19.372   3.647   3.439 -0.3334  0.1637  0.1894
    1DIPC   D2A26778  19.103   3.856   3.682 -0.2530 -0.3148  0.2159
    1DIPC   D3A26779  19.340   3.643   3.961 -0.2249 -0.2123 -0.0186
    1DIPC   C4A26780  19.440   3.955   4.147 -0.0284 -0.2816  0.0844
    1DIPC   C1B26781  19.270   3.226   4.117 -0.1533 -0.0476 -0.1848
    1DIPC   D2B26782  19.177   3.205   4.588 -0.2234  0.0127 -0.2871
    1DIPC   D3B26783  19.643   3.263   4.765 -0.3258 -0.0879  0.2617
    1DIPC   C4B26784  20.064   3.372   4.686 -0.2568 -0.0742 -0.0794
    1DIPC   NC326785  23.589   4.093   3.291  0.0992 -0.0764 -0.0828
    1DIPC   PO426786  23.424   3.709   3.303 -0.1378  0.1222 -0.0074
    1DIPC   GL126787  23.406   3.751   3.761  0.0067  0.1236 -0.1605
    1DIPC   GL226788  23.575   3.534   4.047 -0.0755 -0.1215  0.1488
    1DIPC   C1A26789  23.443   4.047   3.962 -0.4266  0.0170 -0.1046
    1DIPC   D2A26790  23.545   4.213   4.412 -0.0504  0.0835  0.3240
    1DIPC   D3A26791  23.484   4.604   4.716 -0.2348  0.2094  0.2740
    1DIPC   C4A26792  23.362   4.473   5.159 -0.1305  0.1212  0.0740
    1DIPC   C1B26793  23.865   3.726   4.314 -0.1109  0.1504 -0.0968
    1DIPC   D2B26794  24.090   3.890   4.633  0.0634 -0.2969  0.0394
    1DIPC   D3B26795  23.833   3.549   4.887 -0.2074 -0.1359 -0.0410
    1DIPC   C4B26796  23.718   3.287   4.531  0.0833 -0.1724  0.2364
    1DIPC   NC326797  22.520  20.898   2.966  0.1592  0.2163 -0.0740
    1DIPC   PO426798  22.028  20.917   3.208  0.2008  0.1605 -0.1684
    1DIPC   GL126799  22.159  21.079   3.585 -0.1261  0.1472 -0.2697
    1DIPC   GL226800  22.085  20.729   3.657  0.0215 -0.1311 -0.1653
    1DIPC   C1A26801  22.200  21.261   3.999 -0.3555  0.3029  0.1145
    1DIPC   D2A26802  22.622  21.315   4.244 -0.1103  0.1228 -0.1476
    1DIPC   D3A26803  23.003  21.508   4.281 -0.0989  0.1500 -0.3099
    1DIPC   C4A26804  23.271  21.479   4.678 -0.0090  0.3055 -0.1108
    1DIPC   C1B26805  22.358  20.776   4.001  0.1538  0.0901  0.0379
    1DIPC   D2B26806  22.703  20.774   4.178  0.0634  0.0679 -0.1850
    1DIPC   D3B26807  22.800  20.568   4.518 -0.0626  0.0394  0.2486
    1DIPC   C4B26808  23.195  20.538   4.717 -0.1490 -0.2772  0.1268
    1DIPC   NC326809   7.199  11.705   3.206 -0.0860 -0.2768  0.2353
    1DIPC   PO426810   7.274  11.200   3.271 -0.0684  0.5930 -0.2824
    1DIPC   GL126811   7.062  11.334   3.646 -0.0946  0.3481  0.0621
    1DIPC   GL226812   6.972  11.064   3.907  0.0307  0.2665  0.1590
    1DIPC   C1A26813   7.072  11.645   3.941 -0.0007  0.2477 -0.2131
    1DIPC   D2A26814   7.221  11.976   4.213 -0.1331 -0.0563 -0.0994
    1DIPC   D3A26815   6.899  12.007   4.320  0.1277 -0.4697 -0.3941
    1DIPC   C4A26816   6.529  12.349   4.176 -0.0468 -0.0795 -0.2673
    1DIPC   C1B26817   6.569  10.869   3.878 -0.0415  0.1029  0.0769
    1DIPC   D2B26818   6.157  11.144   3.801  0.0796 -0.1334 -0.1133
    1DIPC   D3B26819   5.858  11.182   4.197 -0.2141 -0.4111 -0.1746
    1DIPC   C4B26820   5.770  11.522   4.458  0.2346  0.1842 -0.0049
    1DIPC   NC326821   6.329  18.725   2.025  0.2250  0.0299 -0.1513
    1DIPC   PO426822   5.951  18.497   2.117 -0.0826 -0.3923  0.0670
    1DIPC   GL126823   5.788  18.592   2.593 -0.1445  0.1399 -0.2783
    1DIPC   GL226824   5.470  18.641   2.758 -0.1224 -0.0768  0.0248
    1DIPC   C1A26825   5.952  18.694   2.927 -0.1480 -0.3273 -0.1172
    1DIPC   D2A26826   6.399  18.811   2.944  0.1004 -0.0935  0.1151
    1DIPC   D3A26827   6.328  18.771   3.369  0.1308 -0.2350 -0.0436
    1DIPC   C4A26828   6.518  18.689   3.900  0.0253 -0.2079  0.0240
    1DIPC   C1B26829   5.355  18.989   3.106 -0.0305  0.0069  0.1522
    1DIPC   D2B26830   5.170  19.104   3.443 -0.0879 -0.0080  0.3765
    1DIPC   D3B26831   4.756  19.028   3.623  0.1051  0.3713  0.1136
    1DIPC   C4B26832   4.426  18.767   3.407 -0.2867  0.4822 -0.1862
    1DIPC   NC326833  12.931   2.243   3.809  0.0212  0.1043 -0.0324
    1DIPC   PO426834  13.395   2.321   3.630 -0.0456  0.0353 -0.0005
    1DIPC   GL126835  13.723   2.322   3.910 -0.4165 -0.1464 -0.0591
    1DIPC   GL226836  13.781   2.598   4.048  0.0349 -0.1480  0.0143
    1DIPC   C1A26837  13.847   2.054   4.206 -0.4096  0.1700 -0.0847
    1DIPC   D2A26838  14.049   2.309   4.580 -0.4092 -0.0864  0.2177
    1DIPC   D3A26839  14.114   2.368   5.042 -0.1221  0.2934 -0.4752
    1DIPC   C4A26840  14.233   2.327   5.463  0.1284  0.0652  0.0567
    1DIPC   C1B26841  13.510   2.577   4.427 -0.1547 -0.0422  0.0001
    1DIPC   D2B26842  13.560   2.654   4.911  0.0203  0.1280 -0.0791
    1DIPC   D3B26843  13.909   2.735   5.270  0.0486  0.2780 -0.0438
    1DIPC   C4B26844  13.681   2.907   5.610 -0.0777  0.0451 -0.5778
    1DIPC   NC326845   4.787  11.700   2.686 -0.2130 -0.2873  0.2355
    1DIPC   PO426846   4.426  11.602   2.886  0.3148  0.1348  0.0956
    1DIPC   GL126847   4.181  11.745   3.260 -0.1122  0.1126  0.2289
    1DIPC   GL226848   4.020  11.950   3.147 -0.3166 -0.1551 -0.0059
    1DIPC   C1A26849   4.238  11.643   3.628 -0.1250  0.0176  0.0270
    1DIPC   D2A26850   4.103  11.798   3.974  0.2679  0.0315  0.2010
    1DIPC   D3A26851   4.585  11.756   3.946  0.0005  0.1663  0.0062
    1DIPC   C4A26852   4.667  12.116   3.978  0.2294 -0.2020  0.2588
    1DIPC   C1B26853   3.722  11.879   3.477 -0.1239  0.0683 -0.0411
    1DIPC   D2B26854   3.588  11.861   3.803 -0.3120 -0.1941 -0.3582
    1DIPC   D3B26855   3.737  12.131   4.106  0.1098 -0.1173  0.0534
    1DIPC   C4B26856   3.466  12.331   4.399 -0.2832  0.0498  0.1431
    1DIPC   NC326857  18.915   8.971   2.258  0.0370 -0.0961  0.0853
    1DIPC   PO426858  18.761   8.635   2.276 -0.3800  0.0074 -0.0254
    1DIPC   GL126859  18.667   8.630   2.637  0.1195 -0.2775 -0.0241
    1DIPC   GL226860  18.864   8.871   2.780 -0.0088  0.1487  0.1563
    1DIPC   C1A26861  18.366   8.405   2.850  0.2245  0.3001 -0.2319
    1DIPC   D2A26862  18.134   8.164   3.096  0.0724  0.0993 -0.0253
    1DIPC   D3A26863  18.297   7.997   3.515  0.1147 -0.0712  0.2513
    1DIPC   C4A26864  18.790   7.983   3.583 -0.0779 -0.1614  0.2013
    1DIPC   C1B26865  19.215   8.732   3.006  0.0846 -0.2325 -0.3457
    1DIPC   D2B26866  19.455   8.528   2.955  0.2872 -0.1224  0.1911
    1DIPC   D3B26867  19.394   8.115   2.786 -0.0040 -0.0867  0.0039
    1DIPC   C4B26868  19.539   7.736   2.857  0.1165  0.1034  0.0472
    1DIPC   NC326869   2.201   1.956   3.083  0.6002 -0.2265 -0.1898
    1DIPC   PO426870   2.498   2.333   3.231 -0.0448  0.0746 -0.3916
    1DIPC   GL126871   2.422   2.533   3.663  0.2221 -0.0482  0.1024
    1DIPC   GL226872   2.740   2.675   3.792  0.0367  0.2285  0.0545
    1DIPC   C1A26873   2.328   2.658   4.113  0.1127  0.1293  0.0739
    1DIPC   D2A26874   2.151   2.996   4.428 -0.3014 -0.2467 -0.1438
    1DIPC   D3A26875   2.111   2.771   4.771  0.1690 -0.0343  0.1111
    1DIPC   C4A26876   1.729   2.640   4.742  0.0184  0.0263  0.1825
    1DIPC   C1B26877   2.784   2.983   4.177  0.0980  0.0862 -0.3092
    1DIPC   D2B26878   2.660   3.041   4.592  0.2688 -0.3486 -0.0350
    1DIPC   D3B26879   2.503   2.625   4.560 -0.4998  0.2835 -0.0849
    1DIPC   C4B26880   2.752   2.211   4.714 -0.0001  0.2447 -0.2692
    1DIPC   NC326881  26.802  18.328   2.416  0.1960  0.2306  0.2871
    1DIPC   PO426882  26.534  18.019   2.421  0.0569  0.2690  0.1187
    1DIPC   GL126883  26.313  18.137   2.841  0.1665  0.0364  0.0267
    1DIPC   GL226884  26.525  18.157   3.034  0.0267  0.3266  0.0242
    1DIPC   C1A26885  25.917  18.107   3.035 -0.0758  0.1112  0.2948
    1DIPC   D2A26886  25.559  17.796   2.971  0.2976  0.0365 -0.1719
    1DIPC   D3A26887  25.442  17.597   3.349  0.1621  0.2560 -0.1466
    1DIPC   C4A26888  25.270  17.289   3.372 -0.0838  0.0126  0.0299
    1DIPC   C1B26889  26.378  18.212   3.359 -0.1363  0.0555 -0.0728
    1DIPC   D2B26890  25.926  18.471   3.540 -0.1376  0.1052 -0.1672
    1DIPC   D3B26891  26.093  18.550   3.116 -0.2924  0.0223  0.0523
    1DIPC   C4B26892  26.504  18.641   3.063  0.1401  0.2439  0.0129
    1DIPC   NC326893  16.568  25.721   3.191 -0.2806 -0.2304 -0.0410
    1DIPC   PO426894  16.376  25.876   3.506  0.0436 -0.0772 -0.2758
    1DIPC   GL126895  16.293  25.444   3.766 -0.0954  0.0250 -0.1391
    1DIPC   GL226896  16.015  25.230   3.699 -0.0355  0.0551 -0.0019
    1DIPC   C1A26897  16.426  25.022   4.012 -0.0053  0.3025  0.0590
    1DIPC   D2A26898  16.367  24.957   4.455 -0.0799  0.2179 -0.3586
    1DIPC   D3A26899  16.358  24.555   4.636 -0.0686  0.2604  0.2754
    1DIPC   C4A26900  16.095  24.159   4.535 -0.1181 -0.0467 -0.1338
    1DIPC   C1B26901  15.879  25.122   4.113  0.0072 -0.3704  0.0314
    1DIPC   D2B26902  16.001  24.723   4.250  0.2652  0.2318  0.3693
    1DIPC   D3B26903  15.703  24.465   4.425  0.4867 -0.0123 -0.1702
    1DIPC   C4B26904  15.610  24.050   4.476 -0.0396  0.2986  0.0049
    1DIPC   NC326905  11.864   0.163   3.011 -0.0883 -0.0672 -0.3830
    1DIPC   PO426906  12.020   0.522   3.301 -0.2801 -0.1444 -0.0211
    1DIPC   GL126907  12.003   0.553   3.731  0.0286  0.0488 -0.0206
    1DIPC   GL226908  11.991   0.847   3.942  0.0309  0.0236  0.0366
    1DIPC   C1A26909  11.911   0.481   4.252  0.4089  0.0072 -0.0995
    1DIPC   D2A26910  11.840   0.279   4.660 -0.0889  0.1394  0.4831
    1DIPC   D3A26911  12.175   0.582   4.725  0.0545 -0.0010  0.1113
    1DIPC   C4A26912  12.081   0.911   4.643 -0.2430 -0.2382  0.0934
    1DIPC   C1B26913  11.744   0.909   4.303  0.0592 -0.0409  0.1083
    1DIPC   D2B26914  11.618   0.841   4.726 -0.0635  0.2713  0.0188
    1DIPC   D3B26915  11.758   1.141   5.000 -0.0603  0.2256 -0.2304
    1DIPC   C4B26916  11.759   0.941   5.373  0.4678 -0.0568 -0.4343
    1DIPC   NC326917   6.393   9.043   3.199 -0.1558 -0.0223 -0.1615
    1DIPC   PO426918   6.186   9.451   3.262  0.0362  0.3408  0.1103
    1DIPC   GL126919   6.114   9.293   3.680  0.2000  0.0547 -0.1754
    1DIPC   GL226920   5.852   9.385   3.789 -0.0163 -0.1330 -0.3929
    1DIPC   C1A26921   6.242   9.381   4.154  0.3545  0.0274  0.0286
    1DIPC   D2A26922   6.197   9.217   4.543 -0.0910  0.1131  0.2131
    1DIPC   D3A26923   6.212   8.803   4.468 -0.1842  0.1446 -0.0780
    1DIPC   C4A26924   6.348   8.588   4.905  0.1721  0.3421 -0.1709
    1DIPC   C1B26925   5.694   9.516   4.158 -0.2116 -0.0577  0.0508
    1DIPC   D2B26926   5.837   9.551   4.597 -0.0472  0.1336  0.1228
    1DIPC   D3B26927   5.715   9.957   4.630 -0.0414  0.1103 -0.0199
    1DIPC   C4B26928   6.004  10.354   4.795 -0.0518 -0.2386 -0.6029
    1DIPC   NC326929  25.101   6.470   3.053 -0.1783  0.2922 -0.4229
    1DIPC   PO426930  25.382   6.246   2.889  0.3738 -0.1410  0.0153
    1DIPC   GL126931  25.425   5.936   3.194  0.0525  0.0898 -0.1089
    1DIPC   GL226932  25.787   5.932   3.387 -0.1611 -0.0535 -0.1394
    1DIPC   C1A26933  25.216   5.846   3.585  0.1036 -0.0671  0.1988
    1DIPC   D2A26934  24.896   5.627   3.713  0.0833 -0.0087 -0.0155
    1DIPC   D3A26935  25.176   5.627   4.138 -0.1660 -0.0456 -0.0930
    1DIPC   C4A26936  25.426   5.859   4.149  0.0105  0.0581  0.1947
    1DIPC   C1B26937  25.875   5.908   3.856 -0.1426 -0.0182 -0.3742
    1DIPC   D2B26938  25.946   5.947   4.306 -0.2028  0.0878  0.0073
    1DIPC   D3B26939  26.103   6.156   4.548  0.0829  0.1581 -0.0332
    1DIPC   C4B26940  26.296   5.902   4.804 -0.0974  0.1819 -0.0450
    1DIPC   NC326941  22.628   0.531   2.741 -0.0431  0.3674  0.0071
    1DIPC   PO426942  22.697   0.697   3.231 -0.0950 -0.0666  0.2572
    1DIPC   GL126943  22.466   0.784   3.619 -0.0012  0.0798 -0.0957
    1DIPC   GL226944  22.268   0.474   3.823  0.0313  0.1516 -0.0492
    1DIPC   C1A26945  22.693   1.022   3.939  0.2472  0.0371 -0.1554
    1DIPC   D2A26946  22.659   1.093   4.419 -0.1150  0.0082  0.2016
    1DIPC   D3A26947  22.745   0.857   4.744 -0.0296  0.0796 -0.0957
    1DIPC   C4A26948  22.802   0.870   5.193 -0.1022  0.2147 -0.0068
    1DIPC   C1B26949  22.171   0.272   4.162  0.2022  0.1174 -0.3268
    1DIPC   D2B26950  22.136   0.200   4.563 -0.0985  0.1683  0.1601
    1DIPC   D3B26951  22.015  -0.046   4.999  0.0522  0.0982 -0.2083
    1DIPC   C4B26952  21.768   0.205   5.161  0.0981 -0.3138 -0.0870
    1DIPC   NC326953   0.719   6.771   3.246  0.2062 -0.2576 -0.0732
    1DIPC   PO426954   0.372   6.835   3.031  0.2122 -0.0625 -0.3787
    1DIPC   GL126955   0.281   6.714   3.517  0.1141  0.1307  0.0305
    1DIPC   GL226956   0.333   6.414   3.439 -0.4763  0.0576  0.2233
    1DIPC   C1A26957   0.110   6.737   3.916 -0.1591 -0.0049 -0.0205
    1DIPC   D2A26958   0.033   6.475   4.359  0.0042 -0.4243 -0.2331
    1DIPC   D3A26959  -0.313   6.121   4.172  0.1864  0.0121  0.1507
    1DIPC   C4A26960  -0.398   5.698   4.360 -0.3000  0.1364 -0.1235
    1DIPC   C1B26961   0.610   6.353   3.787  0.2155 -0.0657 -0.0694
    1DIPC   D2B26962   0.615   6.685   4.111 -0.2161  0.3067  0.0821
    1DIPC   D3B26963   0.554   6.747   4.500 -0.1301  0.1220 -0.0967
    1DIPC   C4B26964   0.380   6.521   4.753 -0.0959  0.1601 -0.1499
    1DIPC   NC326965  23.782  17.068   2.047  0.0511 -0.1744 -0.1675
    1DIPC   PO426966  23.431  17.076   2.355  0.0351  0.0168 -0.0046
    1DIPC   GL126967  23.549  17.234   2.746  0.3470  0.2321 -0.0019
    1DIPC   GL226968  23.885  17.218   2.849 -0.1477 -0.1770 -0.2021
    1DIPC   C1A26969  23.466  17.149   3.187  0.2476  0.0715 -0.0171
    1DIPC   D2A26970  23.596  17.085   3.447  0.0565 -0.2741  0.0409
    1DIPC   D3A26971  24.089  17.133   3.620 -0.1844  0.4731  0.2296
    1DIPC   C4A26972  24.290  17.549   3.517  0.2924 -0.0719  0.1960
    1DIPC   C1B26973  23.918  16.870   3.124 -0.1501  0.1306 -0.0425
    1DIPC   D2B26974  23.937  16.699   3.526 -0.1272 -0.1507 -0.0039
    1DIPC   D3B26975  23.713  16.731   3.768  0.5626 -0.2577  0.0041
    1DIPC   C4B26976  23.712  16.561   4.176 -0.3932 -0.1405 -0.3441
    1DIPC   NC326977   8.076   1.067   3.585  0.0265 -0.2204 -0.0426
    1DIPC   PO426978   8.513   1.023   3.596 -0.1266 -0.1352 -0.0003
    1DIPC   GL126979   8.454   0.898   3.932  0.0534 -0.2242 -0.1120
    1DIPC   GL226980   8.227   0.715   3.958  0.2981  0.1960  0.1456
    1DIPC   C1A26981   8.560   0.903   4.341  0.0336  0.1760 -0.0590
    1DIPC   D2A26982   8.695   1.052   4.743 -0.3940 -0.1065  0.0108
    1DIPC   D3A26983   8.456   1.418   4.978 -0.2223  0.0351  0.0475
    1DIPC   C4A26984   8.059   1.552   4.847 -0.0612 -0.1563  0.0156
    1DIPC   C1B26985   8.215   0.485   4.384 -0.1031 -0.1067 -0.0768
    1DIPC   D2B26986   8.220   0.454   4.722  0.0405  0.1491 -0.0557
    1DIPC   D3B26987   7.952   0.665   5.083 -0.0532  0.1364 -0.2358
    1DIPC   C4B26988   7.482   0.662   5.180 -0.3321  0.0784  0.2460
    1DIPC   NC326989   8.490  19.475   2.452 -0.1946 -0.0847 -0.0358
    1DIPC   PO426990   8.626  19.002   2.129  0.2315 -0.1431  0.0672
    1DIPC   GL126991   8.527  18.824   2.505 -0.1143 -0.1612  0.1351
    1DIPC   GL226992   8.257  19.072   2.585  0.2181 -0.1661 -0.0632
    1DIPC   C1A26993   8.479  18.926   3.016  0.1756  0.0143 -0.0989
    1DIPC   D2A26994   8.197  19.050   3.370  0.1603  0.3163  0.0660
    1DIPC   D3A26995   8.501  18.943   3.766 -0.0166  0.0861  0.1390
    1DIPC   C4A26996   8.455  19.011   4.206  0.1749  0.0431 -0.4120
    1DIPC   C1B26997   8.011  18.896   2.892 -0.0247  0.0220 -0.1483
    1DIPC   D2B26998   7.752  18.595   2.948 -0.2205  0.2767  0.1149
    1DIPC   D3B26999   7.837  18.682   3.323 -0.2309 -0.2874  0.1686
    1DIPC   C4B27000   8.006  18.301   3.652 -0.0452 -0.0231  0.1905
    1DIPC   NC327001   2.755   3.801   3.619  0.2056 -0.1841  0.0758
    1DIPC   PO427002   2.710   4.181   3.602  0.4067  0.3291 -0.0800
    1DIPC   GL127003   2.331   4.299   3.940 -0.0101 -0.3788 -0.1168
    1DIPC   GL227004   2.040   4.382   3.902 -0.0703  0.1240  0.0794
    1DIPC   C1A27005   2.217   4.542   4.349  0.0006  0.1865 -0.3581
    1DIPC   D2A27006   2.278   4.843   4.653 -0.0728  0.1059  0.0802
    1DIPC   D3A27007   2.070   4.691   5.075  0.0547 -0.0187  0.0100
    1DIPC   C4A27008   2.194   4.815   5.417  0.0594 -0.2129 -0.1725
    1DIPC   C1B27009   1.797   4.749   3.874 -0.0727 -0.1220  0.1511
    1DIPC   D2B27010   1.684   5.227   3.902 -0.1574  0.1659  0.1436
    1DIPC   D3B27011   1.770   5.573   3.595 -0.0856 -0.0887 -0.0889
    1DIPC   C4B27012   1.382   5.600   3.415  0.0043  0.1104 -0.0251
    1DIPC   NC327013  26.034   8.215   2.144 -0.1099  0.4829  0.3523
    1DIPC   PO427014  25.924   8.655   2.251  0.3006  0.0745 -0.0645
    1DIPC   GL127015  26.000   8.873   2.632  0.1044 -0.1779  0.0456
    1DIPC   GL227016  26.103   9.245   2.657  0.1265 -0.1849  0.1574
    1DIPC   C1A27017  26.093   8.777   3.127  0.1190 -0.0304  0.1979
    1DIPC   D2A27018  26.226   8.768   3.644 -0.0796 -0.0547 -0.0469
    1DIPC   D3A27019  26.241   8.797   4.023  0.2279 -0.1392 -0.0130
    1DIPC   C4A27020  25.929   8.697   4.325 -0.0726 -0.0998 -0.2570
    1DIPC   C1B27021  26.160   9.300   3.117 -0.1662  0.0948  0.1127
    1DIPC   D2B27022  26.435   9.066   3.315  0.0058  0.0149 -0.2931
    1DIPC   D3B27023  26.666   9.178   3.686  0.0089  0.1974  0.0829
    1DIPC   C4B27024  26.431   9.298   4.090  0.2300 -0.3342 -0.0596
    1DIPC   NC327025  28.386  25.056   2.423 -0.0969 -0.0113  0.3643
    1DIPC   PO427026  28.033  24.682   2.637 -0.1689 -0.0632 -0.1584
    1DIPC   GL127027  28.079  24.818   3.051 -0.0369  0.0442  0.1151
    1DIPC   GL227028  28.306  25.014   2.951 -0.0745 -0.1738  0.0198
    1DIPC   C1A27029  28.059  24.842   3.472 -0.4510  0.3488 -0.1757
    1DIPC   D2A27030  28.073  24.540   3.803  0.0906  0.1566  0.1094
    1DIPC   D3A27031  27.915  24.718   4.127 -0.0160  0.0585 -0.1054
    1DIPC   C4A27032  27.702  25.027   4.296  0.0407  0.2194 -0.2336
    1DIPC   C1B27033  28.404  25.448   2.963 -0.0149 -0.1784  0.1730
    1DIPC   D2B27034  28.734  25.697   2.869 -0.1543  0.0459 -0.0475
    1DIPC   D3B27035  28.696  25.935   3.213  0.0134 -0.0230  0.3344
    1DIPC   C4B27036  28.800  26.396   3.327  0.3077 -0.1119 -0.3232
    1DIPC   NC327037  29.786  23.563   2.767 -0.2478  0.0404  0.1979
    1DIPC   PO427038  30.080  23.772   2.771  0.1463 -0.0273  0.0260
    1DIPC   GL127039  30.119  23.669   3.171  0.0150  0.0671  0.3618
    1DIPC   GL227040  30.068  23.424   3.215  0.2373 -0.0393  0.1570
    1DIPC   C1A27041  30.380  23.743   3.675 -0.1697 -0.2818 -0.0171
    1DIPC   D2A27042  30.392  23.896   4.171  0.1607  0.4721  0.1065
    1DIPC   D3A27043  30.246  23.847   4.564  0.2040 -0.0206 -0.3682
    1DIPC   C4A27044  29.916  23.648   4.511  0.0277 -0.2068 -0.3549
    1DIPC   C1B27045  30.180  23.316   3.607  0.2220 -0.0226 -0.0203
    1DIPC   D2B27046  30.180  23.039   3.926 -0.0636  0.0080 -0.0981
    1DIPC   D3B27047  30.232  23.384   4.195 -0.0270  0.1041 -0.0747
    1DIPC   C4B27048  30.337  23.360   4.607 -0.3415 -0.0861  0.2670
    1DIPC   NC327049   3.469  17.979   2.141 -0.1149  0.0982  0.2090
    1DIPC   PO427050   3.722  18.314   2.186 -0.1445  0.0545 -0.0944
    1DIPC   GL127051   3.838  18.189   2.552 -0.1082 -0.4152  0.3343
    1DIPC   GL227052   3.622  17.858   2.672 -0.3210  0.0186 -0.2216
    1DIPC   C1A27053   3.664  18.316   2.900  0.0350 -0.2501  0.0173
    1DIPC   D2A27054   3.375  18.052   3.288  0.0651 -0.4848 -0.1642
    1DIPC   D3A27055   3.297  18.426   3.271  0.2035  0.3027  0.1584
    1DIPC   C4A27056   3.222  18.609   2.804 -0.0990  0.1767 -0.1053
    1DIPC   C1B27057   3.724  17.720   3.135 -0.0569 -0.0446  0.0437
    1DIPC   D2B27058   3.499  17.492   3.528 -0.0826 -0.0780 -0.3008
    1DIPC   D3B27059   3.476  17.620   3.997 -0.1006  0.1327  0.3302
    1DIPC   C4B27060   3.552  17.279   4.237  0.1306  0.0701  0.0137
    1DIPC   NC327061   0.863   5.902   2.918 -0.3239  0.0408  0.2435
    1DIPC   PO427062   0.459   5.875   2.825  0.0202  0.0885  0.1389
    1DIPC   GL127063   0.491   5.888   3.300 -0.0932 -0.1321  0.1297
    1DIPC   GL227064   0.402   5.552   3.470  0.1138 -0.3556  0.2460
    1DIPC   C1A27065   0.572   5.854   3.823 -0.1360 -0.1471  0.0605
    1DIPC   D2A27066   0.467   5.697   4.180 -0.0106  0.1970 -0.0885
    1DIPC   D3A27067   0.150   5.376   4.296 -0.1176  0.3499  0.3406
    1DIPC   C4A27068  -0.078   5.332   4.677 -0.3593 -0.3497  0.2603
    1DIPC   C1B27069   0.648   5.357   3.810  0.0808  0.0892 -0.1520
    1DIPC   D2B27070   0.742   5.257   4.271 -0.2088 -0.2149  0.0560
    1DIPC   D3B27071   1.123   5.481   4.307  0.1587 -0.0833 -0.0011
    1DIPC   C4B27072   1.280   5.429   4.726  0.1195  0.0407  0.1585
    1DIPC   NC327073   2.494  13.742   2.319 -0.2872  0.1253  0.1579
    1DIPC   PO427074   2.951  13.909   2.443 -0.2164 -0.0177  0.1471
    1DIPC   GL127075   2.976  14.216   2.832  0.0209 -0.0085  0.0039
    1DIPC   GL227076   3.277  14.233   2.851  0.2294 -0.4032  0.1536
    1DIPC   C1A27077   2.642  14.184   3.252  0.1837  0.0250  0.1028
    1DIPC   D2A27078   2.245  14.159   3.552  0.2068 -0.0589 -0.1924
    1DIPC   D3A27079   2.219  14.572   3.468 -0.0154  0.2560  0.0501
    1DIPC   C4A27080   2.160  14.907   3.759  0.2012  0.1448  0.1095
    1DIPC   C1B27081   3.445  13.864   3.119 -0.2728  0.2715  0.1806
    1DIPC   D2B27082   3.394  13.780   3.600 -0.2363  0.0085 -0.0105
    1DIPC   D3B27083   2.954  14.026   3.755  0.0903 -0.1257  0.0057
    1DIPC   C4B27084   2.927  14.132   4.188 -0.0629  0.2097 -0.2401
    1DIPC   NC327085  29.346  25.870   1.906  0.4963  0.1688 -0.2307
    1DIPC   PO427086  29.394  26.165   2.336 -0.0072 -0.4282  0.0183
    1DIPC   GL127087  29.675  25.916   2.702  0.0298  0.0729 -0.2017
    1DIPC   GL227088  30.008  25.860   2.807 -0.2778  0.3332  0.2217
    1DIPC   C1A27089  29.458  25.739   3.167  0.2304 -0.1111  0.1202
    1DIPC   D2A27090  29.478  25.487   3.546  0.0029 -0.3426  0.1095
    1DIPC   D3A27091  29.743  25.531   3.806  0.1761 -0.1388 -0.0863
    1DIPC   C4A27092  30.131  25.448   3.806  0.1731  0.0867  0.0925
    1DIPC   C1B27093  29.881  26.126   3.147 -0.1560 -0.2131  0.0521
    1DIPC   D2B27094  29.744  26.524   3.452 -0.0141 -0.0540 -0.2426
    1DIPC   D3B27095  29.773  26.086   3.743 -0.0902  0.1261 -0.0424
    1DIPC   C4B27096  29.840  26.225   4.100  0.0818  0.1175 -0.3433
    1DIPC   NC327097   8.453  29.625   3.536 -0.0031  0.1121 -0.0709
    1DIPC   PO427098   8.271  29.851   3.266  0.3470 -0.0625 -0.0861
    1DIPC   GL127099   8.090  29.969   3.716 -0.1945  0.0976 -0.0108
    1DIPC   GL227100   8.384  29.985   3.900  0.1005 -0.0519  0.0031
    1DIPC   C1A27101   7.979  29.759   4.147  0.0951  0.1829 -0.2023
    1DIPC   D2A27102   8.059  29.854   4.587  0.1308  0.1194  0.1969
    1DIPC   D3A27103   8.042  29.603   4.880 -0.0488  0.0763 -0.0968
    1DIPC   C4A27104   7.883  29.267   5.138  0.0114 -0.0116  0.0570
    1DIPC   C1B27105   8.613  30.260   4.131 -0.1631 -0.1517  0.3018
    1DIPC   D2B27106   8.671  30.245   4.580 -0.3878 -0.1234 -0.0994
    1DIPC   D3B27107   8.958  29.954   4.649  0.1659  0.3235 -0.0798
    1DIPC   C4B27108   8.875  29.616   4.380  0.2297 -0.2096 -0.1064
    1DIPC   NC327109  20.301  20.578   2.929 -0.1594  0.0812  0.2872
    1DIPC   PO427110  20.700  20.570   3.265  0.0405 -0.0487 -0.1031
    1DIPC   GL127111  20.387  20.543   3.523 -0.0100 -0.0012  0.2576
    1DIPC   GL227112  20.159  20.740   3.515  0.0267 -0.0330 -0.2479
    1DIPC   C1A27113  20.214  20.519   3.941 -0.0029 -0.0180 -0.0116
    1DIPC   D2A27114  20.154  20.748   4.307 -0.1693  0.0491 -0.2326
    1DIPC   D3A27115  20.064  20.353   4.436  0.0194  0.2910  0.0704
    1DIPC   C4A27116  19.743  20.330   4.779  0.0690  0.3934 -0.3829
    1DIPC   C1B27117  20.227  21.013   3.857 -0.2305  0.0706 -0.2485
    1DIPC   D2B27118  20.330  21.427   3.915  0.1827  0.4238 -0.2983
    1DIPC   D3B27119  19.901  21.427   4.120  0.1802  0.2684  0.0638
    1DIPC   C4B27120  19.517  21.535   4.323  0.1352 -0.0070 -0.1085
    1DIPC   NC327121   6.369  19.651   1.858 -0.1522  0.1540  0.1968
    1DIPC   PO427122   6.328  19.332   2.112  0.1270  0.1947 -0.0648
    1DIPC   GL127123   6.323  19.483   2.449 -0.1906 -0.1803  0.4279
    1DIPC   GL227124   6.039  19.622   2.654  0.1039 -0.2566  0.0775
    1DIPC   C1A27125   6.481  19.782   2.898  0.0871 -0.0817  0.1533
    1DIPC   D2A27126   6.453  20.030   3.208 -0.0830  0.3552 -0.2489
    1DIPC   D3A27127   6.417  20.438   3.292 -0.3775  0.2065 -0.0789
    1DIPC   C4A27128   6.611  20.729   3.144 -0.0321  0.4291  0.0118
    1DIPC   C1B27129   6.026  19.726   3.160  0.1121 -0.2214  0.1427
    1DIPC   D2B27130   6.200  19.700   3.540 -0.1462 -0.0647 -0.0859
    1DIPC   D3B27131   5.762  19.684   3.727 -0.0232 -0.2795  0.0046
    1DIPC   C4B27132   5.780  20.067   4.062  0.0104 -0.0213 -0.1470
    1DIPC   NC327133   5.272  15.478   2.190 -0.1881  0.1307 -0.0471
    1DIPC   PO427134   5.315  15.210   2.512  0.0121 -0.0936 -0.0429
    1DIPC   GL127135   5.210  15.122   2.958 -0.0833  0.0651 -0.1805
    1DIPC   GL227136   5.466  14.982   3.092  0.0886  0.0561 -0.1486
    1DIPC   C1A27137   5.372  15.272   3.469  0.0559 -0.1319  0.1008
    1DIPC   D2A27138   5.116  15.397   3.891 -0.3897  0.0836 -0.1099
    1DIPC   D3A27139   5.267  15.718   4.122 -0.0272  0.0837  0.2015
    1DIPC   C4A27140   5.423  16.103   4.050 -0.1723 -0.2775  0.0374
    1DIPC   C1B27141   5.625  14.655   3.432 -0.1420 -0.0757 -0.1824
    1DIPC   D2B27142   5.655  14.312   3.653  0.4093  0.1094  0.1275
    1DIPC   D3B27143   5.530  14.542   4.084  0.1038  0.0704  0.2456
    1DIPC   C4B27144   5.357  14.302   4.454 -0.2387  0.0031 -0.1362
    1DIPC   NC327145   0.679   7.444   2.724 -0.0631 -0.2439  0.1611
    1DIPC   PO427146   0.350   7.659   2.986 -0.0268  0.1002  0.0277
    1DIPC   GL127147   0.318   7.611   3.488  0.2911  0.1884  0.0850
    1DIPC   GL227148   0.713   7.543   3.607  0.0830 -0.2780  0.1800
    1DIPC   C1A27149   0.007   7.661   3.811  0.0887  0.2058 -0.1477
    1DIPC   D2A27150  -0.284   7.630   4.199  0.2720 -0.0881 -0.0416
    1DIPC   D3A27151  -0.345   8.061   4.191 -0.0533  0.1347  0.2203
    1DIPC   C4A27152  -0.264   8.473   4.164  0.0417 -0.1208  0.3501
    1DIPC   C1B27153   0.523   7.718   3.936  0.0085  0.1300  0.1559
    1DIPC   D2B27154   0.257   7.502   4.188 -0.0070 -0.2401  0.0774
    1DIPC   D3B27155   0.575   7.636   4.497 -0.2127  0.2261 -0.1142
    1DIPC   C4B27156   0.515   8.017   4.886  0.0505 -0.2959  0.2102
    1DIPC   NC327157   6.668  24.637   2.204  0.2644 -0.3132  0.1819
    1DIPC   PO427158   6.364  24.372   2.402  0.0104 -0.0391  0.1497
    1DIPC   GL127159   6.305  23.993   2.739 -0.1332  0.0336 -0.1707
    1DIPC   GL227160   6.271  23.584   2.796  0.0829 -0.1925  0.0607
    1DIPC   C1A27161   6.064  24.016   3.047 -0.4083 -0.1299  0.4150
    1DIPC   D2A27162   5.628  23.985   3.220  0.0134 -0.1000  0.0744
    1DIPC   D3A27163   5.581  23.651   3.586  0.1881 -0.0463  0.0212
    1DIPC   C4A27164   5.170  23.611   3.772 -0.0601 -0.1005 -0.0438
    1DIPC   C1B27165   6.520  23.828   3.208 -0.0151 -0.0234  0.1629
    1DIPC   D2B27166   6.779  23.721   3.559  0.0212  0.1389 -0.1399
    1DIPC   D3B27167   6.841  23.642   4.048  0.2764  0.0160  0.3025
    1DIPC   C4B27168   6.675  23.906   4.430 -0.0053 -0.0871 -0.1455
    1DIPC   NC327169   8.463   6.002   3.109 -0.1042 -0.0615  0.1335
    1DIPC   PO427170   8.292   5.604   3.068  0.0666  0.3641  0.0482
    1DIPC   GL127171   8.464   5.530   3.483  0.2980 -0.4452 -0.1210
    1DIPC   GL227172   8.743   5.325   3.645  0.2617 -0.2278  0.0702
    1DIPC   C1A27173   8.440   5.554   3.892 -0.1026  0.0823  0.0975
    1DIPC   D2A27174   8.391   5.896   4.058 -0.5069 -0.1260 -0.3294
    1DIPC   D3A27175   8.173   6.236   4.239 -0.1010  0.0395 -0.2886
    1DIPC   C4A27176   8.476   6.369   4.618 -0.1772  0.2053 -0.0409
    1DIPC   C1B27177   8.394   5.026   3.864  0.2010  0.0163 -0.1199
    1DIPC   D2B27178   8.542   4.752   4.254 -0.2292 -0.1845  0.1127
    1DIPC   D3B27179   8.983   4.658   4.385  0.0986 -0.0025  0.3893
    1DIPC   C4B27180   8.951   4.329   4.668  0.0265  0.1024 -0.0689
    1DIPC   NC327181  12.887   6.037   3.023  0.0654  0.2097  0.1668
    1DIPC   PO427182  12.834   5.581   3.096  0.1419  0.0414 -0.2417
    1DIPC   GL127183  13.038   5.846   3.421  0.0025  0.2070  0.6043
    1DIPC   GL227184  13.477   5.917   3.473 -0.1362 -0.2035 -0.3833
    1DIPC   C1A27185  13.253   6.084   3.855  0.0240 -0.0052 -0.1048
    1DIPC   D2A27186  13.352   6.439   4.063  0.0985  0.1291 -0.0858
    1DIPC   D3A27187  13.734   6.371   3.846 -0.3369  0.1981 -0.2168
    1DIPC   C4A27188  14.092   6.099   3.977  0.4956 -0.3034 -0.1876
    1DIPC   C1B27189  13.406   5.543   3.859  0.2226  0.0431  0.2023
    1DIPC   D2B27190  13.281   5.394   4.256  0.0464  0.0184 -0.1189
    1DIPC   D3B27191  13.513   5.555   4.425  0.2101  0.1300 -0.0012
    1DIPC   C4B27192  13.685   5.872   4.110  0.1250 -0.1046 -0.1041
    1DIPC   NC327193   4.248  12.505   2.627  0.2146 -0.0769  0.1853
    1DIPC   PO427194   4.306  12.908   2.603 -0.0812 -0.0226 -0.1864
    1DIPC   GL127195   4.473  12.887   3.123  0.0122 -0.1939 -0.1123
    1DIPC   GL227196   4.635  12.681   3.242  0.0496 -0.2437 -0.1613
    1DIPC   C1A27197   4.249  12.987   3.549  0.0253 -0.0289 -0.0768
    1DIPC   D2A27198   4.186  13.019   4.078  0.0971  0.0645  0.1121
    1DIPC   D3A27199   3.990  12.993   4.489  0.1590 -0.1221  0.3158
    1DIPC   C4A27200   3.888  12.514   4.591 -0.0262 -0.3180 -0.2251
    1DIPC   C1B27201   5.007  12.862   3.363 -0.2848 -0.0359 -0.3344
    1DIPC   D2B27202   5.120  13.148   3.675 -0.2441  0.1971  0.2783
    1DIPC   D3B27203   5.303  12.795   3.736 -0.1376  0.1176 -0.1176
    1DIPC   C4B27204   5.369  12.373   3.808 -0.0709 -0.1025  0.1558
    1DIPC   NC327205   3.952  23.208   2.253  0.0515  0.0061  0.1700
    1DIPC   PO427206   3.928  22.887   2.404 -0.1036  0.4312  0.0336
    1DIPC   GL127207   4.046  22.896   2.909  0.2141  0.2895 -0.0824
    1DIPC   GL227208   4.340  22.713   2.915 -0.2442 -0.3875  0.0950
    1DIPC   C1A27209   4.034  22.856   3.321 -0.1068 -0.1480 -0.1147
    1DIPC   D2A27210   4.046  23.087   3.671  0.1042  0.0789 -0.1634
    1DIPC   D3A27211   3.900  22.725   3.823  0.2921 -0.2089  0.2753
    1DIPC   C4A27212   3.589  22.403   3.740 -0.0748 -0.3586 -0.2367
    1DIPC   C1B27213   4.650  22.496   3.114  0.2916 -0.3445 -0.1654
    1DIPC   D2B27214   4.926  22.284   3.390  0.0341 -0.0592  0.0089
    1DIPC   D3B27215   4.897  21.842   3.626 -0.0310 -0.0248 -0.1425
    1DIPC   C4B27216   5.075  21.508   3.434  0.0435 -0.1744  0.0519
    1DIPC   NC327217  12.482   1.682   3.976 -0.2080  0.2111 -0.2210
    1DIPC   PO427218  12.477   2.005   3.719 -0.0184 -0.2481  0.3644
    1DIPC   GL127219  12.563   2.208   4.181 -0.1027  0.1553 -0.1819
    1DIPC   GL227220  12.747   1.993   4.316  0.1958 -0.0109 -0.0192
    1DIPC   C1A27221  12.755   2.449   4.509 -0.0243  0.1071 -0.1481
    1DIPC   D2A27222  13.087   2.649   4.817 -0.1556  0.1675 -0.0116
    1DIPC   D3A27223  13.075   2.323   5.066  0.1329 -0.2472 -0.1649
    1DIPC   C4A27224  12.926   2.350   5.549 -0.1504  0.3089 -0.0061
    1DIPC   C1B27225  13.107   2.129   4.591 -0.0424 -0.0888 -0.1617
    1DIPC   D2B27226  13.551   2.029   4.627  0.0196 -0.2830 -0.1291
    1DIPC   D3B27227  13.776   1.782   4.854  0.0162  0.2195 -0.1867
    1DIPC   C4B27228  14.000   1.927   5.223  0.0591 -0.0052  0.0195
    1DIPC   NC327229   2.252  19.910   2.629 -0.4501 -0.3008  0.0228
    1DIPC   PO427230   2.659  19.720   2.789 -0.1271 -0.1846 -0.0414
    1DIPC   GL127231   2.832  19.376   3.074  0.0268  0.0509 -0.0079
    1DIPC   GL227232   2.879  19.047   2.855 -0.1076 -0.0085  0.0696
    1DIPC   C1A27233   2.828  19.293   3.486 -0.0776  0.1648  0.2843
    1DIPC   D2A27234   3.195  19.320   3.706 -0.1199 -0.0850  0.0418
    1DIPC   D3A27235   2.882  19.440   3.968  0.1007  0.0651  0.0536
    1DIPC   C4A27236   2.570  19.737   3.881 -0.1096  0.2117  0.0811
    1DIPC   C1B27237   3.044  18.913   3.253  0.0381  0.1702 -0.1521
    1DIPC   D2B27238   3.311  18.823   3.515  0.3189 -0.1347 -0.0274
    1DIPC   D3B27239   3.254  18.445   3.777 -0.2226  0.3251  0.3866
    1DIPC   C4B27240   3.552  18.125   3.804  0.0650  0.1190 -0.1016
    1DIPC   NC327241  18.100  23.363   2.988  0.0302  0.2645 -0.0402
    1DIPC   PO427242  17.663  23.403   3.243 -0.2092  0.0426  0.1503
    1DIPC   GL127243  17.795  23.272   3.542 -0.1009 -0.0495 -0.4974
    1DIPC   GL227244  18.091  23.358   3.555  0.1457  0.0868  0.0388
    1DIPC   C1A27245  17.840  23.191   3.944 -0.0323  0.2173 -0.1736
    1DIPC   D2A27246  17.585  23.184   4.434 -0.1867 -0.0761  0.1359
    1DIPC   D3A27247  17.285  22.858   4.357 -0.1703 -0.0575  0.3225
    1DIPC   C4A27248  16.905  22.779   4.491 -0.1832  0.0031 -0.2557
    1DIPC   C1B27249  18.212  23.498   4.025 -0.2823  0.1731  0.2036
    1DIPC   D2B27250  18.295  23.612   4.518 -0.2628 -0.0895  0.0947
    1DIPC   D3B27251  18.510  23.316   4.796  0.1034 -0.3625  0.3088
    1DIPC   C4B27252  18.677  23.597   5.079 -0.0804  0.3730  0.2165
    1DIPC   NC327253  28.106  14.787   2.158  0.4439  0.0631  0.1802
    1DIPC   PO427254  28.398  15.110   2.076 -0.0408  0.1902  0.1137
    1DIPC   GL127255  28.254  15.305   2.413  0.1541 -0.0993  0.0645
    1DIPC   GL227256  28.070  14.986   2.596  0.1901  0.2751  0.1335
    1DIPC   C1A27257  28.080  15.458   2.840  0.1332  0.2506 -0.1385
    1DIPC   D2A27258  27.652  15.343   2.937 -0.0848  0.1701 -0.1219
    1DIPC   D3A27259  27.388  15.585   2.772  0.0598 -0.0339  0.0649
    1DIPC   C4A27260  27.277  15.997   2.789 -0.0080 -0.0985 -0.1301
    1DIPC   C1B27261  27.988  14.980   2.992 -0.1757  0.1914  0.0735
    1DIPC   D2B27262  28.025  15.289   3.359  0.2211 -0.1598 -0.0574
    1DIPC   D3B27263  28.377  15.283   3.194  0.1925  0.1222  0.0878
    1DIPC   C4B27264  28.664  15.614   3.271  0.2863 -0.0949  0.0621
    1DIPC   NC327265  24.426   0.598   2.835 -0.1187 -0.1748 -0.3229
    1DIPC   PO427266  24.616   0.676   3.131 -0.1632  0.4067  0.2628
    1DIPC   GL127267  24.694   0.467   3.611 -0.0869  0.2393 -0.1447
    1DIPC   GL227268  24.489   0.448   3.778  0.2139  0.0573  0.3141
    1DIPC   C1A27269  25.013   0.162   3.782 -0.0156 -0.0965 -0.3350
    1DIPC   D2A27270  25.343  -0.168   3.676 -0.3086 -0.1805  0.0030
    1DIPC   D3A27271  24.978  -0.313   3.804 -0.0290 -0.1878  0.2269
    1DIPC   C4A27272  24.736  -0.186   4.237 -0.0091 -0.1934  0.0367
    1DIPC   C1B27273  24.707   0.331   4.159 -0.0678 -0.2328  0.0727
    1DIPC   D2B27274  24.927   0.278   4.509 -0.0020  0.0148 -0.0533
    1DIPC   D3B27275  24.767   0.219   4.933 -0.0250  0.2314  0.1460
    1DIPC   C4B27276  24.878  -0.067   5.250  0.0670  0.1148  0.2646
    1DIPC   NC327277  25.482  23.006   2.662  0.1826 -0.0870 -0.3731
    1DIPC   PO427278  25.850  23.211   2.781  0.1446  0.0744 -0.2306
    1DIPC   GL127279  25.910  23.284   3.263  0.0762  0.0331  0.1364
    1DIPC   GL227280  25.682  23.150   3.484 -0.0611  0.0858  0.0968
    1DIPC   C1A27281  26.295  23.470   3.463 -0.0048 -0.1109  0.1881
    1DIPC   D2A27282  26.653  23.385   3.722 -0.1158  0.0494  0.2517
    1DIPC   D3A27283  26.808  23.807   3.894 -0.1115  0.1698  0.0978
    1DIPC   C4A27284  26.897  23.822   4.275  0.2059  0.1115 -0.0927
    1DIPC   C1B27285  26.076  22.909   3.544 -0.1212  0.0966 -0.1774
    1DIPC   D2B27286  26.525  22.905   3.470 -0.1457 -0.1195  0.2058
    1DIPC   D3B27287  26.655  23.307   3.169  0.0990 -0.1778  0.4601
    1DIPC   C4B27288  27.049  23.565   3.399  0.0275 -0.1865  0.0964
    1DIPC   NC327289  13.557  23.492   2.258  0.1189  0.2048 -0.1564
    1DIPC   PO427290  13.956  23.763   2.418  0.0355  0.0069  0.0037
    1DIPC   GL127291  13.810  23.501   2.741 -0.0907  0.2359  0.0924
    1DIPC   GL227292  13.889  23.575   3.042 -0.1907  0.0063 -0.0594
    1DIPC   C1A27293  13.554  23.101   2.737 -0.1279  0.0806 -0.1820
    1DIPC   D2A27294  13.234  22.930   2.845  0.1527  0.3841 -0.2901
    1DIPC   D3A27295  13.190  22.667   3.172 -0.3800 -0.1345 -0.2007
    1DIPC   C4A27296  13.037  22.981   3.426  0.2086  0.1660  0.2605
    1DIPC   C1B27297  14.186  23.767   3.452  0.0386  0.3067 -0.3482
    1DIPC   D2B27298  14.430  24.085   3.920 -0.1474  0.0858 -0.0644
    1DIPC   D3B27299  14.426  23.967   4.387  0.2233 -0.0884 -0.0773
    1DIPC   C4B27300  14.733  23.827   4.737 -0.0596  0.0918  0.0943
    1DIPC   NC327301   2.403  28.328   2.848 -0.3412  0.3336  0.0468
    1DIPC   PO427302   2.135  28.593   3.040 -0.1537  0.0386 -0.2258
    1DIPC   GL127303   1.818  28.273   2.980  0.0134 -0.2846  0.0139
    1DIPC   GL227304   1.748  27.947   2.888  0.1434  0.3058 -0.2684
    1DIPC   C1A27305   1.519  28.170   3.344 -0.2883  0.2018  0.0876
    1DIPC   D2A27306   1.100  28.203   3.416  0.2443  0.0848  0.2198
    1DIPC   D3A27307   0.895  27.895   3.660 -0.1673 -0.5024 -0.4861
    1DIPC   C4A27308   1.181  27.662   3.974  0.1610  0.2794 -0.0166
    1DIPC   C1B27309   1.778  27.748   3.239 -0.0482 -0.3808 -0.1435
    1DIPC   D2B27310   1.682  27.300   3.380 -0.1302  0.0543  0.0922
    1DIPC   D3B27311   1.835  27.042   3.774  0.0098 -0.0132  0.1250
    1DIPC   C4B27312   2.098  27.248   3.983  0.0060  0.1607 -0.0865
    1DIPC   NC327313   2.177  15.162   2.201 -0.0459 -0.2770  0.1453
    1DIPC   PO427314   2.425  15.481   2.185  0.2540 -0.2136  0.3578
    1DIPC   GL127315   2.347  15.378   2.626  0.0333  0.0679  0.2240
    1DIPC   GL227316   2.489  15.044   2.724 -0.1315 -0.0265 -0.0689
    1DIPC   C1A27317   2.037  15.370   2.949 -0.2428 -0.0150 -0.1817
    1DIPC   D2A27318   1.959  15.668   3.322 -0.1159 -0.3765  0.1657
    1DIPC   D3A27319   1.648  15.380   3.247 -0.0224 -0.1374  0.2059
    1DIPC   C4A27320   1.879  15.012   3.275 -0.4290 -0.0731 -0.0482
    1DIPC   C1B27321   2.381  14.923   3.112  0.1116 -0.3588 -0.2559
    1DIPC   D2B27322   2.609  14.856   3.537  0.2016  0.1394 -0.1668
    1DIPC   D3B27323   2.942  14.620   3.701  0.1116 -0.0338 -0.3286
    1DIPC   C4B27324   3.092  14.619   4.140  0.0223 -0.1091 -0.4373
    1DIPC   NC327325  20.294  23.089   3.420 -0.2587  0.0788  0.0198
    1DIPC   PO427326  20.469  22.815   3.270  0.0200  0.0453  0.0978
    1DIPC   GL127327  20.575  22.800   3.710 -0.1047  0.1348  0.1952
    1DIPC   GL227328  20.243  22.745   3.760  0.3108  0.0310 -0.1269
    1DIPC   C1A27329  20.732  22.821   4.170  0.0353 -0.0183  0.4100
    1DIPC   D2A27330  20.663  22.966   4.650 -0.0561  0.0586 -0.1731
    1DIPC   D3A27331  20.634  23.179   5.040 -0.3707  0.0877  0.1040
    1DIPC   C4A27332  20.443  23.616   5.156 -0.1207  0.3812  0.2298
    1DIPC   C1B27333  20.233  22.714   4.189 -0.1149  0.1049  0.0453
    1DIPC   D2B27334  20.133  23.009   4.408  0.0759 -0.0123 -0.1944
    1DIPC   D3B27335  20.162  22.734   4.771  0.0386 -0.0324 -0.0193
    1DIPC   C4B27336  20.250  22.802   5.231  0.1344  0.0907 -0.0539
    1DIPC   NC327337  24.210   0.801   3.531 -0.1770 -0.0885  0.1459
    1DIPC   PO427338  23.849   0.519   3.610 -0.0389 -0.0354 -0.2719
    1DIPC   GL127339  23.591   0.477   3.970  0.1134  0.0550 -0.1696
    1DIPC   GL227340  23.455   0.036   4.161 -0.2286 -0.0845 -0.0287
    1DIPC   C1A27341  23.718   0.737   4.361  0.1391  0.1293 -0.3862
    1DIPC   D2A27342  23.781   0.846   4.742 -0.2083  0.0380 -0.1713
    1DIPC   D3A27343  23.529   0.495   5.000 -0.1527 -0.3316 -0.1126
    1DIPC   C4A27344  23.611   0.076   4.970  0.0614 -0.1827  0.0341
    1DIPC   C1B27345  23.447   0.281   4.556  0.0402 -0.0172  0.1881
    1DIPC   D2B27346  23.292   0.769   4.658  0.0569  0.0349 -0.0192
    1DIPC   D3B27347  23.370   1.047   5.039 -0.1115  0.1579  0.1836
    1DIPC   C4B27348  23.242   1.189   5.536  0.1153  0.1946 -0.3149
    1DIPC   NC327349  22.380  25.686   2.763 -0.1128  0.1278 -0.0709
    1DIPC   PO427350  22.225  26.042   3.049  0.3650 -0.0523 -0.1217
    1DIPC   GL127351  22.077  25.726   3.274 -0.1842 -0.1066  0.2161
    1DIPC   GL227352  22.361  25.657   3.548 -0.2590 -0.1535 -0.3791
    1DIPC   C1A27353  21.929  25.714   3.746 -0.2152 -0.1158  0.1113
    1DIPC   D2A27354  21.897  25.810   4.243 -0.0565 -0.1668  0.1867
    1DIPC   D3A27355  21.532  25.813   4.132  0.1855 -0.2825  0.1221
    1DIPC   C4A27356  21.141  25.904   4.331 -0.0657 -0.0485  0.0055
    1DIPC   C1B27357  22.741  25.630   3.771  0.2362 -0.0519  0.1125
    1DIPC   D2B27358  23.183  25.581   4.013  0.2814  0.1920  0.0632
    1DIPC   D3B27359  23.244  25.836   4.332 -0.0719  0.0671 -0.1103
    1DIPC   C4B27360  23.012  26.135   4.581 -0.2543 -0.0000 -0.2680
    1DIPC   NC327361  19.490   4.988   2.221 -0.0129 -0.0194  0.1637
    1DIPC   PO427362  19.526   4.650   2.564 -0.2757  0.1615 -0.0782
    1DIPC   GL127363  19.763   4.510   2.907  0.2911 -0.2331  0.2224
    1DIPC   GL227364  19.926   4.766   2.991  0.0802  0.1799  0.2726
    1DIPC   C1A27365  19.651   4.317   3.315 -0.1817  0.2387 -0.0756
    1DIPC   D2A27366  19.521   4.106   3.633  0.0447 -0.0325  0.2021
    1DIPC   D3A27367  19.900   4.315   3.752 -0.0983 -0.2196 -0.1183
    1DIPC   C4A27368  20.245   4.367   4.081 -0.0365  0.1868 -0.1898
    1DIPC   C1B27369  19.870   4.806   3.414 -0.4116  0.3289  0.0957
    1DIPC   D2B27370  19.677   4.751   3.760 -0.2492  0.1442  0.1745
    1DIPC   D3B27371  19.323   4.880   3.623  0.0240 -0.0822  0.1461
    1DIPC   C4B27372  18.927   4.875   3.737  0.0456 -0.4102  0.1268
    1DIPC   NC327373   9.027   5.674   3.505 -0.2430  0.2961 -0.0989
    1DIPC   PO427374   9.467   5.792   3.822  0.1108  0.0108 -0.0089
    1DIPC   GL127375   9.154   5.794   4.072 -0.0962 -0.2981  0.2616
    1DIPC   GL227376   8.959   5.632   3.977 -0.3352  0.4869 -0.0885
    1DIPC   C1A27377   8.858   6.114   4.275 -0.0304 -0.0448  0.0950
    1DIPC   D2A27378   9.015   6.295   4.777 -0.1611 -0.0733 -0.0881
    1DIPC   D3A27379   8.607   6.290   5.106 -0.2389 -0.0442 -0.1488
    1DIPC   C4A27380   8.468   6.059   5.420  0.0154  0.1483  0.1997
    1DIPC   C1B27381   8.666   5.632   4.395 -0.3803  0.2974 -0.2098
    1DIPC   D2B27382   8.663   5.924   4.760 -0.1049 -0.0982 -0.3524
    1DIPC   D3B27383   8.854   5.829   5.152  0.0391  0.1603 -0.0951
    1DIPC   C4B27384   9.182   6.082   5.233  0.1548  0.2045 -0.1999
    1DIPC   NC327385   9.683   1.458   3.008 -0.0284  0.1692  0.0231
    1DIPC   PO427386   9.357   1.065   3.101  0.1362  0.1022 -0.0737
    1DIPC   GL127387   9.580   0.988   3.458  0.1939  0.0024  0.1820
    1DIPC   GL227388   9.928   1.049   3.323 -0.0778 -0.0755 -0.1672
    1DIPC   C1A27389   9.404   0.918   3.809 -0.0647 -0.3198  0.1908
    1DIPC   D2A27390   9.069   0.898   4.008  0.0907 -0.0856  0.1169
    1DIPC   D3A27391   9.452   0.896   4.314  0.4326  0.0777 -0.3030
    1DIPC   C4A27392   9.574   1.340   4.372  0.0493 -0.0663 -0.1008
    1DIPC   C1B27393  10.197   1.036   3.755  0.0049 -0.0626  0.0142
    1DIPC   D2B27394  10.357   0.720   4.009 -0.0189 -0.4360 -0.4086
    1DIPC   D3B27395  10.520   0.275   4.028  0.0031 -0.0129 -0.0453
    1DIPC   C4B27396  10.912   0.158   4.288  0.0266 -0.2285 -0.0369
    1DIPC   NC327397  23.856   9.029   2.942 -0.0444 -0.2559 -0.1615
    1DIPC   PO427398  23.559   8.675   3.179  0.2406 -0.1059 -0.1193
    1DIPC   GL127399  23.494   8.888   3.509 -0.2773  0.0437 -0.0094
    1DIPC   GL227400  23.725   8.824   3.771  0.1001 -0.0417  0.3139
    1DIPC   C1A27401  23.280   8.931   3.941 -0.1728  0.1483 -0.0407
    1DIPC   D2A27402  22.967   9.189   4.196 -0.1254  0.2734  0.1308
    1DIPC   D3A27403  22.995   9.264   4.650  0.3376 -0.0146 -0.0542
    1DIPC   C4A27404  22.852   9.491   5.017 -0.0453 -0.1966  0.1772
    1DIPC   C1B27405  23.829   8.903   4.133  0.1497 -0.0257 -0.0771
    1DIPC   D2B27406  23.866   8.732   4.521 -0.1250  0.0466  0.1437
    1DIPC   D3B27407  23.816   8.289   4.599 -0.1632 -0.1844 -0.1561
    1DIPC   C4B27408  24.222   7.980   4.505  0.2589  0.1473  0.0445
    1DIPC   NC327409   9.642   2.245   3.645 -0.1596 -0.0471 -0.1729
    1DIPC   PO427410  10.060   2.026   3.521  0.2098  0.0222 -0.0042
    1DIPC   GL127411  10.149   2.032   3.966  0.1507 -0.2027 -0.1416
    1DIPC   GL227412   9.870   1.956   4.108 -0.0946 -0.3137  0.0579
    1DIPC   C1A27413  10.324   1.889   4.359 -0.0847 -0.4419 -0.3198
    1DIPC   D2A27414  10.622   1.645   4.529  0.1201  0.0848 -0.0788
    1DIPC   D3A27415  11.070   1.847   4.590 -0.1552  0.1349  0.0959
    1DIPC   C4A27416  11.499   1.923   4.551  0.1382 -0.2456  0.1158
    1DIPC   C1B27417   9.898   2.265   4.399 -0.1368  0.1435 -0.1296
    1DIPC   D2B27418   9.553   2.357   4.724 -0.1038 -0.5896  0.0386
    1DIPC   D3B27419   9.479   2.312   5.091 -0.0945 -0.1613  0.0510
    1DIPC   C4B27420   9.407   1.953   5.371  0.1527  0.2005 -0.0967
    1DIPC   NC327421   7.454   1.949   3.634  0.0993 -0.2505 -0.1972
    1DIPC   PO427422   7.990   2.131   3.544  0.2693 -0.2028 -0.0136
    1DIPC   GL127423   7.939   1.911   3.937  0.1183  0.1521 -0.0293
    1DIPC   GL227424   8.159   1.882   4.183 -0.1837 -0.0124  0.1037
    1DIPC   C1A27425   7.508   1.920   4.300  0.3082 -0.0482 -0.1827
    1DIPC   D2A27426   7.259   2.179   4.603  0.0179  0.1174  0.1317
    1DIPC   D3A27427   7.046   1.785   4.602 -0.1149  0.0394 -0.0170
    1DIPC   C4A27428   6.641   1.813   4.957 -0.2774 -0.2272 -0.2432
    1DIPC   C1B27429   8.045   1.989   4.549  0.2823  0.3315  0.0609
    1DIPC   D2B27430   8.057   2.045   4.996  0.2258  0.1005 -0.0936
    1DIPC   D3B27431   8.356   1.937   5.242 -0.0146  0.3271  0.1041
    1DIPC   C4B27432   8.428   1.580   5.496  0.1774  0.0897  0.4407
    1DIPC   NC327433  28.815   9.355   2.735 -0.0387 -0.1820 -0.3400
    1DIPC   PO427434  28.994   9.853   2.649  0.1489  0.0701  0.0396
    1DIPC   GL127435  28.989   9.956   3.130 -0.0182 -0.2362 -0.2103
    1DIPC   GL227436  28.935  10.247   3.240 -0.1209  0.2400 -0.3533
    1DIPC   C1A27437  29.138   9.848   3.545 -0.0056  0.0146  0.0341
    1DIPC   D2A27438  29.094   9.748   3.975 -0.0494 -0.3562 -0.1042
    1DIPC   D3A27439  28.900  10.039   4.336 -0.1012 -0.2217  0.1726
    1DIPC   C4A27440  28.746  10.279   4.718 -0.2903 -0.0586  0.1659
    1DIPC   C1B27441  28.874  10.240   3.697 -0.0998 -0.1043 -0.1133
    1DIPC   D2B27442  28.816  10.557   4.143 -0.3172  0.1510 -0.0568
    1DIPC   D3B27443  28.969  10.860   3.978  0.2016 -0.0542  0.2966
    1DIPC   C4B27444  29.075  10.974   4.416 -0.1538 -0.3235  0.0289
    1DIPC   NC327445  21.805   9.474   2.473  0.3162 -0.0733 -0.1640
    1DIPC   PO427446  21.347   9.544   2.589  0.0463 -0.0388 -0.1973
    1DIPC   GL127447  21.154   9.386   2.888  0.3792 -0.0723  0.0841
    1DIPC   GL227448  20.915   9.457   2.951 -0.0459 -0.2411  0.4412
    1DIPC   C1A27449  21.211   9.138   3.213 -0.1332  0.1643  0.0626
    1DIPC   D2A27450  21.127   8.961   3.668 -0.1375 -0.3549  0.2720
    1DIPC   D3A27451  20.838   8.915   3.854  0.2330  0.4003 -0.3701
    1DIPC   C4A27452  20.435   8.962   3.932 -0.0137  0.2858 -0.0300
    1DIPC   C1B27453  20.528   9.560   2.883 -0.1410  0.1286  0.1146
    1DIPC   D2B27454  20.142   9.760   2.986 -0.1098 -0.1758 -0.2100
    1DIPC   D3B27455  20.537   9.776   3.283  0.1529 -0.0194  0.1213
    1DIPC   C4B27456  21.004   9.969   3.366 -0.1643 -0.2222 -0.1390
    1DIPC   NC327457  20.240  29.358   3.260 -0.0635 -0.0028  0.0526
    1DIPC   PO427458  20.553  29.012   3.387  0.1397 -0.1062 -0.2189
    1DIPC   GL127459  20.312  28.701   3.644  0.4327 -0.0773 -0.1531
    1DIPC   GL227460  20.682  28.739   3.919  0.1431 -0.1269  0.3731
    1DIPC   C1A27461  20.004  28.589   3.974 -0.1556  0.0724  0.0283
    1DIPC   D2A27462  19.538  28.533   3.963 -0.2222 -0.0387 -0.1162
    1DIPC   D3A27463  19.676  28.515   4.359 -0.0040 -0.1594  0.1398
    1DIPC   C4A27464  19.668  28.456   4.818  0.5505 -0.2444 -0.1167
    1DIPC   C1B27465  20.409  28.521   4.211  0.0540  0.2087 -0.0178
    1DIPC   D2B27466  20.416  28.504   4.642 -0.3628  0.0773  0.0215
    1DIPC   D3B27467  20.097  28.769   4.482 -0.2156  0.2593 -0.0881
    1DIPC   C4B27468  19.894  29.173   4.630  0.0867  0.2985 -0.1764
    1DIPC   NC327469   3.065  19.957   2.485  0.1618 -0.0738 -0.0823
    1DIPC   PO427470   3.002  20.156   2.115  0.0800 -0.0906 -0.0461
    1DIPC   GL127471   3.096  20.480   2.523 -0.1751  0.0481  0.0027
    1DIPC   GL227472   3.280  20.378   2.776 -0.0011 -0.0555  0.2168
    1DIPC   C1A27473   3.015  20.803   2.804  0.1783 -0.1698  0.1371
    1DIPC   D2A27474   3.019  20.915   3.231 -0.0255  0.0790  0.0984
    1DIPC   D3A27475   3.106  20.729   3.545 -0.1543  0.1910 -0.1099
    1DIPC   C4A27476   2.960  20.582   3.946  0.2460 -0.1831  0.3255
    1DIPC   C1B27477   3.425  20.686   3.090  0.1351  0.1599  0.1146
    1DIPC   D2B27478   3.825  20.832   3.021 -0.2647 -0.0496 -0.1806
    1DIPC   D3B27479   3.791  20.602   3.390 -0.2326 -0.1316  0.0200
    1DIPC   C4B27480   3.891  20.159   3.530  0.0548 -0.2382  0.1126
    1DIPC   NC327481   1.316   6.854   2.846  0.3673  0.2514  0.0185
    1DIPC   PO427482   1.205   6.584   3.191  0.2320 -0.3409 -0.2076
    1DIPC   GL127483   1.243   6.424   3.500 -0.0109 -0.1244 -0.0145
    1DIPC   GL227484   1.113   6.095   3.647 -0.1356 -0.0850  0.0240
    1DIPC   C1A27485   1.534   6.541   3.756  0.2736  0.0477  0.1584
    1DIPC   D2A27486   1.537   6.604   4.260 -0.0575  0.2445  0.0134
    1DIPC   D3A27487   1.170   6.649   4.465 -0.1350  0.1568  0.2564
    1DIPC   C4A27488   0.862   6.321   4.725  0.2707  0.3200 -0.1639
    1DIPC   C1B27489   1.052   5.788   3.936 -0.2188  0.0903  0.2559
    1DIPC   D2B27490   1.214   5.329   3.794 -0.2030  0.1463  0.0563
    1DIPC   D3B27491   1.020   4.983   3.866 -0.1092  0.1949  0.1600
    1DIPC   C4B27492   0.727   4.793   4.107 -0.2595 -0.0663 -0.1180
    1DIPC   NC327493  17.226   9.543   2.295  0.1187  0.0434  0.0063
    1DIPC   PO427494  16.799   9.671   2.340  0.0311 -0.0893 -0.1320
    1DIPC   GL127495  16.875   9.693   2.750  0.0511  0.2200  0.1550
    1DIPC   GL227496  16.753   9.988   2.912  0.0284  0.1691 -0.1634
    1DIPC   C1A27497  17.132   9.733   3.160  0.4060  0.0024  0.1762
    1DIPC   D2A27498  17.181   9.954   3.592  0.1102 -0.1489  0.3475
    1DIPC   D3A27499  17.520   9.806   4.013  0.1891  0.0771 -0.0270
    1DIPC   C4A27500  17.935   9.823   4.092 -0.2448 -0.1761 -0.0112
    1DIPC   C1B27501  16.722   9.948   3.368 -0.4911  0.1618  0.0672
    1DIPC   D2B27502  16.702   9.604   3.753  0.1349 -0.2500 -0.0855
    1DIPC   D3B27503  16.934   9.590   4.008  0.0795  0.0898  0.0295
    1DIPC   C4B27504  17.067   9.909   4.200  0.4844 -0.1217  0.2726
    1DIPC   NC327505  25.918  26.314   3.103 -0.1768  0.1166 -0.2444
    1DIPC   PO427506  26.277  26.072   2.847  0.1008  0.1438 -0.4000
    1DIPC   GL127507  26.287  26.037   3.296 -0.0078 -0.2218  0.1129
    1DIPC   GL227508  26.253  25.699   3.304  0.3057  0.3287 -0.0383
    1DIPC   C1A27509  26.022  26.046   3.683  0.0185 -0.1577 -0.1503
    1DIPC   D2A27510  25.935  26.261   4.120 -0.0993 -0.1399 -0.3528
    1DIPC   D3A27511  25.852  26.484   4.499 -0.0478  0.1151  0.2217
    1DIPC   C4A27512  25.453  26.607   4.598 -0.2568 -0.3053  0.3697
    1DIPC   C1B27513  26.299  25.429   3.651 -0.2795  0.2539 -0.2809
    1DIPC   D2B27514  26.628  25.269   3.521 -0.2225  0.0698  0.3216
    1DIPC   D3B27515  26.783  25.173   3.935  0.0265  0.0351 -0.0196
    1DIPC   C4B27516  26.814  25.271   4.391 -0.1070  0.0256 -0.2144
    1DIPC   NC327517  11.440   8.109   2.683 -0.1599 -0.0460 -0.0103
    1DIPC   PO427518  11.832   8.221   2.863 -0.0740  0.3027  0.0407
    1DIPC   GL127519  11.584   8.173   3.239 -0.0323  0.3144  0.2195
    1DIPC   GL227520  11.724   8.431   3.431 -0.1641 -0.1580 -0.0553
    1DIPC   C1A27521  11.566   7.968   3.595 -0.1411  0.0548 -0.1684
    1DIPC   D2A27522  11.184   7.741   3.787  0.3216  0.2990  0.0427
    1DIPC   D3A27523  11.189   7.762   4.274  0.1145  0.0874  0.1072
    1DIPC   C4A27524  10.948   8.112   4.397 -0.0123  0.1134  0.0659
    1DIPC   C1B27525  11.974   8.745   3.645 -0.0882  0.0958 -0.4244
    1DIPC   D2B27526  12.478   8.641   3.635  0.0922 -0.0677  0.0275
    1DIPC   D3B27527  12.345   8.718   4.064  0.0782  0.1146  0.1376
    1DIPC   C4B27528  11.976   8.690   4.256 -0.1905  0.1620 -0.0115
    1DIPC   NC327529  26.521   7.756   3.068 -0.2996 -0.1966  0.0647
    1DIPC   PO427530  26.209   8.070   3.103  0.1650 -0.0217  0.1305
    1DIPC   GL127531  26.302   7.977   3.599 -0.0740  0.0364  0.3121
    1DIPC   GL227532  26.515   7.721   3.627  0.0985 -0.1041  0.0091
    1DIPC   C1A27533  26.584   8.378   3.756 -0.2327 -0.0666 -0.1608
    1DIPC   D2A27534  27.002   8.497   3.861  0.0565  0.0422  0.0421
    1DIPC   D3A27535  26.702   8.879   4.093 -0.2902 -0.1647 -0.0731
    1DIPC   C4A27536  27.021   9.077   4.234  0.0998 -0.0292  0.2048
    1DIPC   C1B27537  26.928   8.019   3.915  0.0519 -0.3459  0.2277
    1DIPC   D2B27538  26.759   8.365   4.266  0.0108 -0.1293 -0.2054
    1DIPC   D3B27539  27.173   8.632   4.465 -0.1547 -0.0434 -0.0474
    1DIPC   C4B27540  27.061   8.867   4.818 -0.0184  0.0050 -0.0104
    1DIPC   NC327541  22.982   3.588   3.403  0.1391 -0.0054  0.3237
    1DIPC   PO427542  22.534   3.589   3.390  0.0282 -0.0303  0.0798
    1DIPC   GL127543  22.522   3.491   3.828 -0.0660 -0.1670  0.2857
    1DIPC   GL227544  22.254   3.304   3.877  0.0177 -0.0595 -0.2265
    1DIPC   C1A27545  22.483   3.683   4.220  0.3388  0.1091 -0.1379
    1DIPC   D2A27546  22.168   3.625   4.610  0.1295 -0.3123 -0.0103
    1DIPC   D3A27547  22.152   4.106   4.486 -0.0570  0.0045  0.3756
    1DIPC   C4A27548  22.471   4.430   4.583  0.0165  0.2782 -0.2920
    1DIPC   C1B27549  22.641   3.239   4.297 -0.3339  0.2500 -0.1030
    1DIPC   D2B27550  22.873   3.171   4.730 -0.1327  0.1281 -0.2930
    1DIPC   D3B27551  22.519   3.212   5.023 -0.2066  0.1608  0.0969
    1DIPC   C4B27552  22.651   3.038   5.415  0.0939 -0.0673 -0.4188
    1DIPC   NC327553   0.069   1.687   3.204  0.1173  0.1791  0.3338
    1DIPC   PO427554  -0.125   2.098   3.258 -0.4041 -0.0617 -0.2494
    1DIPC   GL127555  -0.296   2.144   3.717  0.0084  0.0345 -0.2211
    1DIPC   GL227556  -0.171   2.466   3.788 -0.0565 -0.0468 -0.0531
    1DIPC   C1A27557  -0.186   1.910   4.124  0.1831  0.0863  0.0186
    1DIPC   D2A27558  -0.009   1.676   4.377  0.0726 -0.0052  0.1087
    1DIPC   D3A27559  -0.347   1.515   4.529 -0.1522  0.1414  0.1050
    1DIPC   C4A27560  -0.753   1.542   4.348  0.3727 -0.0418 -0.3019
    1DIPC   C1B27561  -0.310   2.467   4.158  0.0182  0.1328 -0.0437
    1DIPC   D2B27562  -0.356   2.468   4.707  0.1416 -0.1484 -0.0966
    1DIPC   D3B27563   0.057   2.503   4.773 -0.1979 -0.1472 -0.0706
    1DIPC   C4B27564   0.150   2.277   5.136 -0.0896 -0.1473 -0.0252
    1DIPC   NC327565  13.931  28.996   3.376 -0.1425  0.0344  0.1817
    1DIPC   PO427566  13.744  28.572   3.495 -0.1388 -0.0556 -0.3310
    1DIPC   GL127567  13.658  28.544   3.931  0.4684  0.4046 -0.0939
    1DIPC   GL227568  13.978  28.259   3.965 -0.1660 -0.3067 -0.1246
    1DIPC   C1A27569  13.573  28.798   4.300 -0.1203 -0.0541  0.1104
    1DIPC   D2A27570  13.457  29.185   4.458  0.2997  0.1032  0.0965
    1DIPC   D3A27571  13.337  29.064   4.876  0.0257  0.1707 -0.1306
    1DIPC   C4A27572  13.056  28.736   4.997 -0.3645 -0.0921  0.2285
    1DIPC   C1B27573  14.102  27.959   4.154  0.2290  0.2299  0.0788
    1DIPC   D2B27574  14.201  27.526   4.393 -0.3893  0.0702 -0.0960
    1DIPC   D3B27575  13.867  27.463   4.673  0.1571 -0.1000  0.2614
    1DIPC   C4B27576  13.752  27.752   4.480 -0.0916  0.0241  0.0165
    1DIPC   NC327577  22.352  27.827   2.700  0.0259  0.1739 -0.0067
    1DIPC   PO427578  22.669  27.594   2.757 -0.1139 -0.0075  0.0286
    1DIPC   GL127579  22.478  27.843   3.152  0.1753 -0.0819 -0.2618
    1DIPC   GL227580  22.613  27.994   3.479 -0.2618 -0.0641 -0.1154
    1DIPC   C1A27581  22.154  27.737   3.316  0.1845 -0.0849  0.0749
    1DIPC   D2A27582  21.746  27.883   3.448 -0.0771 -0.1402 -0.0669
    1DIPC   D3A27583  21.894  27.598   3.810 -0.0887 -0.0059  0.0450
    1DIPC   C4A27584  21.732  27.720   4.288  0.1000  0.0560 -0.1470
    1DIPC   C1B27585  22.627  27.884   3.941  0.1839 -0.1244 -0.4618
    1DIPC   D2B27586  22.817  27.928   4.264  0.2559  0.1281 -0.0270
    1DIPC   D3B27587  22.509  27.826   4.529 -0.1035 -0.1364  0.2672
    1DIPC   C4B27588  22.155  27.799   4.682 -0.0571 -0.0640 -0.0161
    1DIPC   NC327589  23.484  27.602   3.099  0.1329  0.0712 -0.3923
    1DIPC   PO427590  23.389  27.985   3.332  0.4069  0.1208  0.2076
    1DIPC   GL127591  23.666  28.106   3.698 -0.0513  0.0684 -0.0175
    1DIPC   GL227592  23.340  28.368   3.706  0.0534  0.0468 -0.4583
    1DIPC   C1A27593  23.876  28.064   4.069 -0.1566  0.0813  0.0388
    1DIPC   D2A27594  24.010  27.965   4.462 -0.1072 -0.0531  0.0162
    1DIPC   D3A27595  23.756  27.947   4.859 -0.3580 -0.2080 -0.1685
    1DIPC   C4A27596  24.046  27.733   5.067 -0.1074  0.0345  0.2429
    1DIPC   C1B27597  23.321  28.168   4.109  0.0704  0.2357 -0.2033
    1DIPC   D2B27598  23.094  28.273   4.476 -0.2162  0.0668 -0.1975
    1DIPC   D3B27599  23.117  28.620   4.273 -0.0485 -0.3361 -0.1684
    1DIPC   C4B27600  23.250  28.964   4.597  0.4578 -0.3173  0.0208
    1DIPC   NC327601  22.893   8.822   2.562 -0.1194  0.0194  0.1160
    1DIPC   PO427602  22.599   8.723   2.800 -0.0236 -0.0820  0.1860
    1DIPC   GL127603  22.791   8.773   3.105  0.4813 -0.0487 -0.2785
    1DIPC   GL227604  23.101   9.117   3.183 -0.0253  0.4117  0.2701
    1DIPC   C1A27605  22.872   8.897   3.574  0.2291 -0.1327 -0.2452
    1DIPC   D2A27606  22.730   8.868   3.946  0.0673 -0.1109 -0.1228
    1DIPC   D3A27607  22.999   8.581   4.212  0.0084  0.2891 -0.2607
    1DIPC   C4A27608  23.072   8.788   4.572 -0.0934 -0.1756 -0.2164
    1DIPC   C1B27609  23.211   9.323   3.568  0.0175  0.2930 -0.0028
    1DIPC   D2B27610  22.904   9.706   3.631 -0.0174  0.0095 -0.0069
    1DIPC   D3B27611  22.694   9.525   3.222  0.1811  0.1917  0.1688
    1DIPC   C4B27612  22.278   9.427   3.354  0.1469  0.4866  0.2400
    1DIPC   NC327613  27.702  21.990   2.762  0.1697  0.1727  0.0865
    1DIPC   PO427614  27.973  21.623   2.731  0.1563 -0.1841 -0.3016
    1DIPC   GL127615  28.067  21.266   3.063  0.2187  0.1010 -0.1816
    1DIPC   GL227616  28.401  21.003   3.068  0.0833  0.0939 -0.0857
    1DIPC   C1A27617  28.035  20.961   3.491 -0.1244 -0.0043 -0.4133
    1DIPC   D2A27618  27.869  21.012   3.931  0.1085  0.4359  0.2891
    1DIPC   D3A27619  27.487  21.158   4.222 -0.3394 -0.2000  0.0220
    1DIPC   C4A27620  27.368  20.924   4.615  0.0424  0.1666  0.1299
    1DIPC   C1B27621  28.469  21.293   3.389 -0.0058  0.2397  0.0756
    1DIPC   D2B27622  28.344  21.276   3.768 -0.0313 -0.4250 -0.1074
    1DIPC   D3B27623  28.710  21.210   4.126  0.1606  0.3318 -0.2038
    1DIPC   C4B27624  28.579  21.170   4.528 -0.4117 -0.4854  0.1326
    1DIPC   NC327625  29.644  11.881   2.374  0.1045 -0.2317 -0.0212
    1DIPC   PO427626  29.888  11.589   2.527 -0.2015  0.3045  0.1878
    1DIPC   GL127627  30.011  11.660   2.982  0.2183 -0.0495  0.1053
    1DIPC   GL227628  30.119  11.370   3.230 -0.2006 -0.3127 -0.2287
    1DIPC   C1A27629  30.173  11.888   3.452  0.0738  0.2969  0.2763
    1DIPC   D2A27630  30.617  12.054   3.676  0.2179 -0.0647  0.2005
    1DIPC   D3A27631  30.747  12.476   3.583  0.0881 -0.1106 -0.1537
    1DIPC   C4A27632  30.704  12.766   3.903  0.2105  0.2164 -0.0361
    1DIPC   C1B27633  30.019  11.418   3.613  0.1416 -0.0069 -0.0177
    1DIPC   D2B27634  29.950  11.388   4.027  0.1052  0.0818  0.1883
    1DIPC   D3B27635  29.802  10.987   4.090 -0.2983  0.3258  0.1618
    1DIPC   C4B27636  29.431  10.740   4.059 -0.2081 -0.0573 -0.1900
    1DIPC   NC327637  13.407   1.819   3.658 -0.1512 -0.0960  0.0355
    1DIPC   PO427638  13.669   1.418   3.606 -0.1048  0.0938 -0.3319
    1DIPC   GL127639  13.644   1.504   4.014  0.0191  0.4054  0.1320
    1DIPC   GL227640  13.322   1.575   4.074  0.1822  0.2479 -0.3585
    1DIPC   C1A27641  13.700   1.459   4.428 -0.0071  0.1846 -0.0613
    1DIPC   D2A27642  14.074   1.389   4.593  0.1196  0.0181  0.1575
    1DIPC   D3A27643  14.317   1.646   4.914  0.2954 -0.0531  0.0577
    1DIPC   C4A27644  14.416   2.053   4.882 -0.0115 -0.0677 -0.1485
    1DIPC   C1B27645  13.194   1.671   4.424 -0.1979 -0.1021  0.1236
    1DIPC   D2B27646  13.129   1.608   4.877 -0.1628 -0.1187 -0.0670
    1DIPC   D3B27647  12.745   1.529   5.076  0.0659  0.0671  0.1591
    1DIPC   C4B27648  12.685   1.062   5.237  0.0867 -0.1908 -0.2799
    1DIPC   NC327649  18.885   4.056   2.398 -0.0358  0.0599  0.1420
    1DIPC   PO427650  19.335   4.169   2.605 -0.0699 -0.2902 -0.0188
    1DIPC   GL127651  19.140   4.040   3.026  0.1151 -0.0664 -0.1268
    1DIPC   GL227652  19.162   4.176   3.336  0.0328 -0.0361  0.0335
    1DIPC   C1A27653  18.937   3.749   3.218 -0.2273 -0.1826  0.0816
    1DIPC   D2A27654  18.635   3.629   3.503  0.1102  0.3132  0.2706
    1DIPC   D3A27655  18.413   3.292   3.320  0.0998 -0.0223 -0.0671
    1DIPC   C4A27656  18.075   3.143   3.523  0.1379  0.0709  0.4291
    1DIPC   C1B27657  19.173   4.414   3.828  0.0259  0.0312  0.0123
    1DIPC   D2B27658  19.193   4.829   4.116  0.1219 -0.2171  0.1543
    1DIPC   D3B27659  19.489   4.694   4.314  0.1632 -0.1360  0.0448
    1DIPC   C4B27660  19.677   4.927   4.606  0.1138 -0.2271 -0.0465
    1DIPC   NC327661  18.882  28.673   2.923 -0.2731 -0.0290 -0.0612
    1DIPC   PO427662  18.790  28.500   3.324  0.2341 -0.0469 -0.0725
    1DIPC   GL127663  18.768  28.775   3.628  0.0542 -0.2702 -0.2110
    1DIPC   GL227664  19.056  28.672   3.789  0.2189  0.3739 -0.1436
    1DIPC   C1A27665  18.628  28.442   3.957  0.0474 -0.1532  0.0654
    1DIPC   D2A27666  18.757  28.554   4.335 -0.2615 -0.0151 -0.0426
    1DIPC   D3A27667  18.403  28.678   4.488 -0.1872 -0.1524 -0.1275
    1DIPC   C4A27668  18.282  28.278   4.836 -0.2590 -0.2267  0.1104
    1DIPC   C1B27669  19.166  28.816   4.152 -0.0554  0.2538 -0.3265
    1DIPC   D2B27670  19.346  29.158   4.432 -0.2561 -0.0640  0.0843
    1DIPC   D3B27671  19.510  29.490   4.658  0.1776 -0.0374  0.1302
    1DIPC   C4B27672  19.924  29.626   4.882 -0.1282 -0.3485  0.3497
    1DIPC   NC327673   2.287   8.210   2.815  0.4574 -0.3591 -0.0747
    1DIPC   PO427674   2.687   8.060   3.157 -0.2937  0.1405  0.0309
    1DIPC   GL127675   2.766   7.892   3.600  0.1019 -0.1942 -0.1781
    1DIPC   GL227676   3.115   7.899   3.658  0.0090 -0.2294  0.0755
    1DIPC   C1A27677   2.796   7.597   3.992  0.2719 -0.2567  0.3430
    1DIPC   D2A27678   2.538   7.603   4.384 -0.2602 -0.0686  0.1381
    1DIPC   D3A27679   2.755   7.332   4.737  0.3745  0.1137 -0.0184
    1DIPC   C4A27680   2.572   7.377   5.153 -0.0319  0.3149  0.1779
    1DIPC   C1B27681   3.062   8.138   3.988 -0.0080 -0.0384  0.1395
    1DIPC   D2B27682   2.839   8.008   4.404  0.0485  0.1892 -0.2297
    1DIPC   D3B27683   2.480   8.284   4.615 -0.1161  0.1066 -0.0108
    1DIPC   C4B27684   2.110   8.117   4.810 -0.1727  0.0674  0.0806
    1DIPC   NC327685   1.604  29.385   2.433  0.0941 -0.0510 -0.0532
    1DIPC   PO427686   1.785  29.222   2.753  0.3166 -0.2922 -0.1375
    1DIPC   GL127687   1.967  29.050   3.036  0.3865 -0.1654 -0.3105
    1DIPC   GL227688   2.271  29.135   3.140 -0.1015 -0.2112 -0.2102
    1DIPC   C1A27689   1.842  29.002   3.515  0.2425  0.1751  0.0125
    1DIPC   D2A27690   1.930  28.668   3.869 -0.2085  0.0105 -0.4179
    1DIPC   D3A27691   1.827  28.405   4.168  0.1122  0.1381  0.0051
    1DIPC   C4A27692   1.901  28.529   4.568 -0.2847  0.2280 -0.2311
    1DIPC   C1B27693   2.167  29.460   3.453 -0.0721  0.1299  0.2057
    1DIPC   D2B27694   2.123  29.702   3.809 -0.2233 -0.0038 -0.0007
    1DIPC   D3B27695   1.694  29.529   3.666 -0.1767  0.1122  0.0477
    1DIPC   C4B27696   1.341  29.559   3.949  0.1416  0.1278 -0.1406
    1DIPC   NC327697  29.584  16.394   2.211 -0.4139  0.2800  0.0051
    1DIPC   PO427698  29.450  16.023   2.587  0.0538  0.0808 -0.0828
    1DIPC   GL127699  29.330  15.748   2.951 -0.3244  0.0034 -0.2393
    1DIPC   GL227700  29.091  15.956   3.058 -0.1400  0.0979  0.2694
    1DIPC   C1A27701  29.203  15.536   3.320 -0.0166  0.0369 -0.3943
    1DIPC   D2A27702  29.096  15.686   3.690 -0.0994 -0.0793  0.1063
    1DIPC   D3A27703  28.971  16.025   3.556  0.0133  0.1722 -0.0029
    1DIPC   C4A27704  28.659  16.237   3.689 -0.0564  0.2139  0.2029
    1DIPC   C1B27705  28.666  16.132   3.183 -0.2553 -0.2537  0.0690
    1DIPC   D2B27706  28.209  16.115   3.468  0.0443 -0.1397 -0.3255
    1DIPC   D3B27707  28.414  15.827   3.740 -0.2455  0.1197 -0.0796
    1DIPC   C4B27708  28.617  15.484   3.737  0.0824  0.0572 -0.1068
    1DIPC   NC327709   2.256   9.343   2.812  0.0574 -0.1079  0.1373
    1DIPC   PO427710   2.694   9.094   2.873  0.1094  0.1368  0.1017
    1DIPC   GL127711   2.866   9.203   3.227  0.3938 -0.0144 -0.0630
    1DIPC   GL227712   2.985   9.479   3.339  0.4341  0.0328 -0.0079
    1DIPC   C1A27713   2.825   9.224   3.764 -0.0691  0.0848  0.1628
    1DIPC   D2A27714   2.635   8.946   4.048  0.1939  0.1714  0.1405
    1DIPC   D3A27715   2.508   8.502   3.886 -0.1260  0.2214 -0.1053
    1DIPC   C4A27716   2.553   8.073   3.994 -0.0770  0.5123  0.0964
    1DIPC   C1B27717   3.218   9.685   3.677  0.0721  0.2522 -0.0093
    1DIPC   D2B27718   3.470   9.885   3.943  0.2788  0.0069  0.2491
    1DIPC   D3B27719   3.303   9.702   4.237  0.0081  0.1530  0.0013
    1DIPC   C4B27720   3.265   9.331   4.013 -0.0418  0.0941 -0.0187
    1DIPC   NC327721   1.624  13.130   2.157 -0.1248  0.2757  0.4325
    1DIPC   PO427722   1.237  13.242   2.342 -0.2281 -0.1128  0.0180
    1DIPC   GL127723   1.578  13.208   2.645  0.0287 -0.0962 -0.2068
    1DIPC   GL227724   1.649  13.501   2.781  0.0763  0.2382  0.2025
    1DIPC   C1A27725   1.620  12.986   3.007  0.2358  0.1105 -0.1137
    1DIPC   D2A27726   1.771  12.604   3.011 -0.3609 -0.2206  0.0437
    1DIPC   D3A27727   1.577  12.303   3.425 -0.1970  0.1324 -0.2750
    1DIPC   C4A27728   1.682  11.956   3.407  0.1363 -0.1227  0.1025
    1DIPC   C1B27729   1.517  13.495   3.164  0.3193 -0.3023 -0.1694
    1DIPC   D2B27730   1.488  13.402   3.566  0.1980 -0.1981 -0.0547
    1DIPC   D3B27731   1.498  13.848   3.624  0.1316 -0.1309 -0.2117
    1DIPC   C4B27732   1.509  14.014   3.085  0.1314  0.0175  0.3240
    1DIPC   NC327733  12.320  22.847   2.048 -0.1365 -0.0156 -0.0261
    1DIPC   PO427734  12.265  23.207   2.279  0.0413  0.0451  0.1233
    1DIPC   GL127735  12.123  23.429   2.605  0.0300  0.1500  0.3409
    1DIPC   GL227736  12.433  23.387   2.742 -0.2068  0.0356  0.0132
    1DIPC   C1A27737  11.738  23.811   2.710  0.2200 -0.0729 -0.2102
    1DIPC   D2A27738  11.362  23.888   2.683  0.0928  0.0105 -0.0553
    1DIPC   D3A27739  11.157  23.602   2.931 -0.0752  0.1105  0.1344
    1DIPC   C4A27740  10.888  23.794   3.330 -0.0256 -0.1111 -0.2000
    1DIPC   C1B27741  12.144  23.202   3.066  0.1723  0.2131  0.0214
    1DIPC   D2B27742  12.284  23.185   3.534  0.1055 -0.0405  0.0094
    1DIPC   D3B27743  12.652  23.111   3.703 -0.0352 -0.0664  0.1138
    1DIPC   C4B27744  12.833  22.957   4.133 -0.0280 -0.1703  0.2824
    1DIPC   NC327745  28.460   6.016   3.058  0.1726 -0.1120  0.0360
    1DIPC   PO427746  28.517   5.498   3.242 -0.2026  0.3346 -0.0587
    1DIPC   GL127747  28.551   5.344   3.608  0.0042 -0.1716  0.1802
    1DIPC   GL227748  28.756   5.092   3.610  0.0967  0.3593 -0.0078
    1DIPC   C1A27749  28.515   5.454   4.004  0.4514 -0.1864 -0.0500
    1DIPC   D2A27750  28.856   5.490   4.305 -0.0670  0.3523  0.3652
    1DIPC   D3A27751  28.953   5.040   4.118 -0.1250  0.0698  0.2383
    1DIPC   C4A27752  29.013   4.687   4.286 -0.2408  0.0445 -0.0038
    1DIPC   C1B27753  29.002   5.452   3.721  0.1492  0.1233  0.3041
    1DIPC   D2B27754  28.824   5.888   4.009  0.1743  0.0227 -0.3043
    1DIPC   D3B27755  28.447   5.885   4.239  0.2906 -0.1779  0.2627
    1DIPC   C4B27756  28.398   5.739   4.578 -0.0476  0.0528  0.1093
    1DIPC   NC327757  14.800  27.906   3.351 -0.0039 -0.3547  0.2884
    1DIPC   PO427758  14.343  28.212   3.499  0.0517  0.0048 -0.2329
    1DIPC   GL127759  14.644  28.195   3.823  0.1258  0.0418  0.3071
    1DIPC   GL227760  14.474  28.365   4.005  0.0812  0.0927  0.0369
    1DIPC   C1A27761  14.562  27.929   4.254 -0.0497 -0.1001 -0.0150
    1DIPC   D2A27762  14.370  27.918   4.612  0.1474 -0.3419 -0.0824
    1DIPC   D3A27763  14.353  27.586   4.980  0.0542 -0.2509 -0.0653
    1DIPC   C4A27764  13.963  27.445   5.173 -0.2308  0.0929 -0.1148
    1DIPC   C1B27765  14.458  28.444   4.389  0.1515  0.2251 -0.1167
    1DIPC   D2B27766  14.558  28.479   4.828 -0.3365 -0.0286  0.0219
    1DIPC   D3B27767  14.097  28.314   4.770 -0.1417  0.0307  0.1898
    1DIPC   C4B27768  13.873  28.323   4.454 -0.1416 -0.1955 -0.1480
    1DIPC   NC327769  12.400  28.144   3.580  0.1749  0.0082 -0.2523
    1DIPC   PO427770  12.740  28.317   3.379 -0.1557 -0.1235 -0.0291
    1DIPC   GL127771  12.831  28.254   3.843 -0.2757  0.0463 -0.0712
    1DIPC   GL227772  13.000  28.627   3.927  0.1444  0.2681 -0.1728
    1DIPC   C1A27773  12.776  28.046   4.135 -0.0127 -0.2663 -0.1316
    1DIPC   D2A27774  12.944  27.890   4.458  0.0667  0.0847  0.0095
    1DIPC   D3A27775  12.568  28.006   4.688 -0.1169 -0.1062  0.0093
    1DIPC   C4A27776  12.356  28.146   5.101 -0.0129  0.2619  0.0295
    1DIPC   C1B27777  12.735  28.522   4.249 -0.0855  0.0208 -0.3266
    1DIPC   D2B27778  12.582  28.512   4.646  0.2595  0.0969  0.1598
    1DIPC   D3B27779  12.891  28.270   4.991  0.1299  0.1458  0.0558
    1DIPC   C4B27780  12.975  27.823   4.958  0.0183 -0.0977 -0.0386
    1DIPC   NC327781  25.973   3.328   2.572 -0.0385  0.0017  0.2027
    1DIPC   PO427782  26.172   3.079   3.015  0.0588  0.0471  0.0740
    1DIPC   GL127783  25.909   3.123   3.350 -0.0158  0.2221  0.1995
    1DIPC   GL227784  26.030   3.402   3.435  0.1021  0.3669 -0.1604
    1DIPC   C1A27785  26.030   3.000   3.792 -0.0485  0.0462  0.3200
    1DIPC   D2A27786  25.977   3.132   4.216  0.0879 -0.0851  0.1170
    1DIPC   D3A27787  26.378   2.961   4.237  0.2449  0.0774  0.0579
    1DIPC   C4A27788  26.611   3.004   3.857 -0.2776 -0.3347 -0.1629
    1DIPC   C1B27789  26.197   3.429   3.875  0.0207 -0.1170  0.1775
    1DIPC   D2B27790  26.223   3.635   4.244 -0.1783  0.0995  0.1065
    1DIPC   D3B27791  26.449   3.342   4.570 -0.0186  0.1736  0.0876
    1DIPC   C4B27792  26.179   2.958   4.748  0.0619  0.2674 -0.1703
    1DIPC   NC327793  26.101  16.748   2.393  0.1917 -0.4186 -0.2632
    1DIPC   PO427794  26.452  16.784   2.505 -0.0623 -0.0059 -0.0882
    1DIPC   GL127795  26.561  16.703   2.860 -0.2412 -0.0718  0.1991
    1DIPC   GL227796  26.807  16.562   2.814  0.0117 -0.0919  0.1951
    1DIPC   C1A27797  26.561  16.790   3.259 -0.2540 -0.0670  0.0426
    1DIPC   D2A27798  26.141  16.832   3.608  0.1966 -0.0011  0.3667
    1DIPC   D3A27799  26.103  16.547   3.988  0.0849 -0.0478 -0.2480
    1DIPC   C4A27800  26.184  16.766   4.410 -0.0135 -0.1072 -0.0255
    1DIPC   C1B27801  27.004  16.317   3.161  0.0519 -0.2693 -0.1162
    1DIPC   D2B27802  27.254  15.929   3.336  0.1687  0.1110 -0.2787
    1DIPC   D3B27803  27.013  16.148   3.646  0.1497 -0.2907  0.2928
    1DIPC   C4B27804  26.763  15.914   3.895  0.2268  0.1630 -0.0233
    1DIPC   NC327805  10.403   7.314   3.258 -0.0664 -0.0516 -0.0006
    1DIPC   PO427806  10.621   6.878   3.269 -0.1617 -0.1192 -0.4069
    1DIPC   GL127807  10.596   6.642   3.587 -0.0732  0.0889 -0.0650
    1DIPC   GL227808  10.812   6.793   3.769  0.0263 -0.1623  0.4215
    1DIPC   C1A27809  10.445   6.603   3.992 -0.1059  0.0568 -0.3581
    1DIPC   D2A27810  10.549   6.834   4.350 -0.1665  0.0540  0.0929
    1DIPC   D3A27811  10.387   6.633   4.679 -0.1221 -0.0577  0.1398
    1DIPC   C4A27812  10.019   6.339   4.894  0.4400 -0.2714 -0.1924
    1DIPC   C1B27813  10.945   6.521   4.213 -0.4845 -0.2155 -0.0167
    1DIPC   D2B27814  10.912   6.717   4.687  0.3753  0.2540 -0.3213
    1DIPC   D3B27815  10.706   6.792   5.077 -0.4348  0.2223  0.3038
    1DIPC   C4B27816  10.452   6.393   5.208 -0.1198 -0.0982  0.1759
    1DIPC   NC327817  26.542  22.142   2.532  0.0118 -0.2150 -0.1708
    1DIPC   PO427818  26.609  21.746   2.492 -0.1023 -0.1554  0.1060
    1DIPC   GL127819  26.659  21.786   2.905  0.0206  0.0516  0.1693
    1DIPC   GL227820  26.868  21.571   3.016 -0.0490  0.4412  0.4168
    1DIPC   C1A27821  26.870  21.926   3.314 -0.1145  0.3539  0.0115
    1DIPC   D2A27822  27.020  21.928   3.783 -0.1537  0.2876  0.4248
    1DIPC   D3A27823  27.384  21.867   3.620 -0.2642  0.1563  0.2301
    1DIPC   C4A27824  27.785  21.920   3.761  0.0088  0.0166  0.1590
    1DIPC   C1B27825  26.841  21.446   3.401 -0.1287 -0.4018  0.0847
    1DIPC   D2B27826  26.754  21.484   3.805  0.2230  0.1660 -0.1296
    1DIPC   D3B27827  26.857  21.624   4.195 -0.0521  0.2757  0.1082
    1DIPC   C4B27828  27.051  21.647   4.654  0.0023 -0.1530  0.2545
    1DIPC   NC327829  27.009   0.380   2.837  0.1689  0.1240 -0.1755
    1DIPC   PO427830  27.117   0.056   2.966  0.0390 -0.3669  0.1994
    1DIPC   GL127831  27.310   0.101   3.477  0.1550 -0.1112  0.0396
    1DIPC   GL227832  27.041   0.277   3.744  0.0863 -0.1954  0.1553
    1DIPC   C1A27833  27.586  -0.244   3.683 -0.0812  0.0493  0.0331
    1DIPC   D2A27834  27.754  -0.377   4.156 -0.3569  0.1237  0.0918
    1DIPC   D3A27835  28.065  -0.131   4.274 -0.1612  0.0495  0.2390
    1DIPC   C4A27836  28.066   0.038   4.683  0.4144  0.1258  0.0351
    1DIPC   C1B27837  27.054   0.094   4.133 -0.2796  0.1155 -0.1810
    1DIPC   D2B27838  26.997   0.294   4.440  0.2268 -0.1533 -0.0940
    1DIPC   D3B27839  26.813   0.505   4.176 -0.0325  0.1811  0.3072
    1DIPC   C4B27840  26.561   0.572   4.325 -0.3669  0.1022 -0.1262
    1DIPC   NC327841  20.843   2.689   3.002  0.1611  0.3480 -0.1782
    1DIPC   PO427842  20.695   3.091   3.186 -0.1580  0.2419 -0.0952
    1DIPC   GL127843  20.518   3.405   3.452 -0.1476 -0.0587  0.1561
    1DIPC   GL227844  20.744   3.752   3.506 -0.0541 -0.1678  0.0320
    1DIPC   C1A27845  20.209   3.576   3.662  0.0280 -0.1015 -0.2455
    1DIPC   D2A27846  19.774   3.730   3.776  0.0516  0.1942  0.0706
    1DIPC   D3A27847  20.075   3.852   4.113  0.1249 -0.4154 -0.1247
    1DIPC   C4A27848  20.258   3.476   4.211 -0.0226 -0.1396  0.0751
    1DIPC   C1B27849  21.044   3.958   3.757  0.0018 -0.3046  0.0766
    1DIPC   D2B27850  21.479   3.820   4.001 -0.0045 -0.0257  0.0549
    1DIPC   D3B27851  21.751   4.244   4.148 -0.1622 -0.3108  0.0228
    1DIPC   C4B27852  21.651   4.697   4.410 -0.1688 -0.1196  0.1487
    1DIPC   NC327853  25.839  26.922   2.556  0.1277 -0.2393  0.2242
    1DIPC   PO427854  25.592  26.702   2.875  0.4896 -0.1113 -0.1298
    1DIPC   GL127855  25.622  26.652   3.318 -0.2454  0.1712  0.1503
    1DIPC   GL227856  25.465  26.384   3.485  0.0824 -0.1084  0.0140
    1DIPC   C1A27857  25.875  26.602   3.723 -0.0681 -0.1046 -0.4444
    1DIPC   D2A27858  26.304  26.466   3.790  0.0980  0.0920  0.0122
    1DIPC   D3A27859  26.322  26.623   3.438 -0.0075 -0.1745  0.0994
    1DIPC   C4A27860  26.723  26.842   3.553  0.1589  0.0002 -0.1217
    1DIPC   C1B27861  25.341  26.769   3.718  0.1165 -0.1852  0.3384
    1DIPC   D2B27862  25.038  26.739   4.080 -0.1977  0.1362 -0.1663
    1DIPC   D3B27863  24.750  26.813   4.465  0.1932  0.0687 -0.0046
    1DIPC   C4B27864  24.417  27.144   4.511  0.1580  0.0248  0.1145
    1DIPC   NC327865   7.512   8.788   3.362 -0.0432  0.1140  0.2268
    1DIPC   PO427866   7.205   8.568   3.714  0.2375 -0.0767 -0.0120
    1DIPC   GL127867   7.339   8.422   4.152 -0.3722 -0.0277 -0.0601
    1DIPC   GL227868   7.194   8.178   4.323 -0.1722  0.2909  0.2384
    1DIPC   C1A27869   7.469   8.592   4.582  0.2248 -0.0578  0.1570
    1DIPC   D2A27870   7.597   9.019   4.740 -0.1370  0.0365 -0.0685
    1DIPC   D3A27871   7.158   8.975   4.679 -0.0518  0.3221 -0.2686
    1DIPC   C4A27872   7.083   8.841   4.267  0.0560  0.3102 -0.0042
    1DIPC   C1B27873   7.041   8.278   4.736 -0.0221 -0.0056 -0.0700
    1DIPC   D2B27874   7.259   8.137   5.217  0.2135 -0.0918  0.1100
    1DIPC   D3B27875   6.889   8.289   5.301 -0.0646 -0.2797 -0.1863
    1DIPC   C4B27876   6.615   8.215   5.047  0.1339  0.1923  0.0334
    1DIPC   NC327877  22.345  22.446   3.602  0.2620  0.0126  0.3387
    1DIPC   PO427878  22.575  22.141   3.668 -0.1339 -0.1620  0.1297
    1DIPC   GL127879  22.480  22.270   4.101 -0.1026 -0.0363  0.1298
    1DIPC   GL227880  22.097  22.273   4.016  0.1365 -0.0482 -0.2575
    1DIPC   C1A27881  22.165  22.162   4.502 -0.0939 -0.0826  0.2745
    1DIPC   D2A27882  22.051  21.873   4.883  0.0101 -0.3582 -0.2261
    1DIPC   D3A27883  22.429  21.698   4.966 -0.0954 -0.0566  0.1798
    1DIPC   C4A27884  22.788  21.484   4.785 -0.1507  0.0085  0.0528
    1DIPC   C1B27885  21.968  22.562   4.309  0.0135 -0.1975 -0.2177
    1DIPC   D2B27886  21.631  22.767   4.474  0.0580 -0.2198  0.0936
    1DIPC   D3B27887  22.026  23.029   4.626 -0.4438  0.1666 -0.0111
    1DIPC   C4B27888  22.065  23.352   4.258  0.1157 -0.4336 -0.3009
    1DIPC   NC327889   0.418   8.767   1.911  0.0091 -0.0401  0.1296
    1DIPC   PO427890   0.458   8.609   2.401 -0.1920  0.0612 -0.0431
    1DIPC   GL127891   0.457   8.454   2.927 -0.0467  0.0356 -0.1006
    1DIPC   GL227892   0.802   8.442   3.016  0.2348  0.2372 -0.0348
    1DIPC   C1A27893   0.310   8.320   3.372 -0.2326 -0.2551  0.0607
    1DIPC   D2A27894   0.266   8.089   3.681 -0.0142 -0.1082  0.0675
    1DIPC   D3A27895   0.127   8.055   4.068 -0.1184  0.1490 -0.1832
    1DIPC   C4A27896   0.141   7.902   4.415  0.0493 -0.1548  0.1688
    1DIPC   C1B27897   0.793   8.622   3.387 -0.0422  0.0943  0.0579
    1DIPC   D2B27898   0.926   8.520   3.754  0.1822  0.2012 -0.1990
    1DIPC   D3B27899   0.555   8.420   3.956  0.0828  0.2047 -0.2366
    1DIPC   C4B27900   0.523   8.239   4.344 -0.1150  0.3906 -0.2360
    1DIPC   NC327901   8.795  27.504   2.827  0.0418  0.0569  0.2924
    1DIPC   PO427902   9.104  27.758   2.946  0.0305 -0.1432 -0.0903
    1DIPC   GL127903   9.100  27.608   3.342  0.1035  0.0668  0.3236
    1DIPC   GL227904   9.356  27.438   3.555 -0.1896 -0.2579 -0.0726
    1DIPC   C1A27905   8.894  27.179   3.485  0.1931 -0.2631  0.1182
    1DIPC   D2A27906   8.935  26.774   3.370 -0.2407 -0.4604  0.0151
    1DIPC   D3A27907   8.916  26.749   3.832  0.0324  0.1403 -0.1302
    1DIPC   C4A27908   8.627  26.480   4.009 -0.1877  0.1862 -0.0439
    1DIPC   C1B27909   9.188  27.509   3.938 -0.1961 -0.0313 -0.4201
    1DIPC   D2B27910   9.270  27.460   4.402 -0.0594  0.2408 -0.4091
    1DIPC   D3B27911   9.391  27.086   4.466  0.0114  0.2256  0.0700
    1DIPC   C4B27912   9.572  27.112   4.056 -0.0777  0.0715 -0.0253
    1DIPC   NC327913  16.714  26.696   3.419  0.0748 -0.2212 -0.0102
    1DIPC   PO427914  17.125  26.953   3.498  0.5663 -0.3677  0.1089
    1DIPC   GL127915  17.435  26.968   3.809 -0.0034 -0.2279 -0.3427
    1DIPC   GL227916  17.365  27.254   4.011  0.0614  0.0292  0.0278
    1DIPC   C1A27917  17.651  26.836   4.183 -0.1826 -0.2597 -0.0433
    1DIPC   D2A27918  17.932  26.866   4.590 -0.1517 -0.3717 -0.3831
    1DIPC   D3A27919  18.079  26.929   5.005 -0.1847  0.2958  0.1456
    1DIPC   C4A27920  18.048  27.256   5.301  0.2235  0.1658  0.1423
    1DIPC   C1B27921  17.017  27.451   4.201 -0.1384  0.1696 -0.2121
    1DIPC   D2B27922  16.500  27.643   4.179  0.2769  0.1776 -0.0759
    1DIPC   D3B27923  16.546  27.258   4.415  0.0103 -0.0427  0.0388
    1DIPC   C4B27924  16.895  27.283   4.703  0.0459 -0.0236  0.0371
    1DIPC   NC327925   5.595  10.235   3.020 -0.0896  0.0180  0.3853
    1DIPC   PO427926   6.120  10.246   3.087  0.1212  0.1896  0.0047
    1DIPC   GL127927   6.246  10.175   3.591  0.3099 -0.0592 -0.1482
    1DIPC   GL227928   6.194  10.517   3.609 -0.0326 -0.2861 -0.1481
    1DIPC   C1A27929   6.334  10.315   4.041  0.1901 -0.0514 -0.0631
    1DIPC   D2A27930   6.314  10.411   4.428  0.1569  0.0717 -0.0762
    1DIPC   D3A27931   6.515  10.241   4.724  0.1161 -0.0859 -0.2008
    1DIPC   C4A27932   6.722  10.620   5.055 -0.0467 -0.1578  0.1272
    1DIPC   C1B27933   6.018  10.690   4.042 -0.0370 -0.0133 -0.1380
    1DIPC   D2B27934   5.938  10.750   4.481 -0.0440 -0.2748  0.0008
    1DIPC   D3B27935   6.355  10.773   4.734  0.0024 -0.3221 -0.2090
    1DIPC   C4B27936   6.434  11.055   5.063 -0.0025 -0.0121 -0.3604
    1DIPC   NC327937  28.987  23.532   2.699  0.0468 -0.2003 -0.0997
    1DIPC   PO427938  29.303  23.682   2.747  0.0191 -0.0602 -0.1175
    1DIPC   GL127939  29.316  23.534   3.166  0.0306 -0.0667  0.2252
    1DIPC   GL227940  29.579  23.250   3.339 -0.1593  0.0638 -0.1922
    1DIPC   C1A27941  29.104  23.351   3.505  0.0833  0.0686 -0.0814
    1DIPC   D2A27942  29.116  23.106   3.817 -0.2771 -0.3143  0.1636
    1DIPC   D3A27943  29.260  23.358   4.058  0.1340  0.1326 -0.0510
    1DIPC   C4A27944  29.100  23.724   4.363  0.1648 -0.0215 -0.0476
    1DIPC   C1B27945  29.648  23.134   3.773  0.3764 -0.2928 -0.0766
    1DIPC   D2B27946  29.531  22.792   3.967 -0.0906  0.0339  0.1540
    1DIPC   D3B27947  29.254  22.868   4.299  0.1035 -0.1625 -0.2301
    1DIPC   C4B27948  29.205  22.584   4.632  0.2165  0.1958 -0.0602
    1DIPC   NC327949  14.792  25.681   3.349  0.0712  0.1320 -0.1166
    1DIPC   PO427950  15.053  25.268   3.351 -0.1135 -0.0794 -0.0590
    1DIPC   GL127951  14.977  25.264   3.637 -0.2496  0.1451 -0.0347
    1DIPC   GL227952  14.704  25.442   3.786 -0.0310 -0.0135 -0.1325
    1DIPC   C1A27953  14.984  25.221   4.119  0.1083  0.2024  0.4487
    1DIPC   D2A27954  14.852  25.087   4.630 -0.1120 -0.0207 -0.0459
    1DIPC   D3A27955  15.213  24.983   4.810  0.0576  0.0502  0.0188
    1DIPC   C4A27956  15.237  24.557   4.894  0.0418  0.2161 -0.1079
    1DIPC   C1B27957  14.477  25.231   4.066 -0.0311 -0.0727  0.0075
    1DIPC   D2B27958  14.373  24.898   4.345 -0.0634  0.0724 -0.3719
    1DIPC   D3B27959  14.360  24.710   3.905  0.3281 -0.0109  0.0383
    1DIPC   C4B27960  14.081  24.923   3.650 -0.0295  0.2134 -0.1411
    1DIPC   NC327961  13.907   2.979   3.304 -0.0142 -0.1039  0.1424
    1DIPC   PO427962  13.435   3.116   3.385  0.3629 -0.3271  0.1089
    1DIPC   GL127963  13.511   3.264   3.863 -0.3816 -0.2573 -0.0507
    1DIPC   GL227964  13.480   3.022   4.079 -0.1294  0.0691 -0.1140
    1DIPC   C1A27965  13.814   3.486   4.082  0.0394 -0.2242 -0.0883
    1DIPC   D2A27966  14.055   3.711   3.966 -0.2467  0.1003  0.1789
    1DIPC   D3A27967  13.903   3.964   4.201 -0.0092 -0.0879  0.0850
    1DIPC   C4A27968  13.944   4.363   4.021  0.0549  0.0261 -0.1659
    1DIPC   C1B27969  13.811   2.989   4.350 -0.0534  0.0271 -0.1469
    1DIPC   D2B27970  14.012   2.801   4.751  0.1092  0.0886 -0.1542
    1DIPC   D3B27971  13.789   3.113   4.933  0.4460  0.0999  0.0944
    1DIPC   C4B27972  13.371   3.043   5.177  0.1562  0.1261  0.0262
    1DIPC   NC327973   7.995   2.813   3.593 -0.1893  0.1420  0.1028
    1DIPC   PO427974   7.781   3.214   3.769 -0.1534 -0.0853 -0.0633
    1DIPC   GL127975   7.711   3.259   4.175 -0.0502  0.3833  0.0481
    1DIPC   GL227976   7.643   3.600   4.165 -0.1594 -0.1312 -0.0054
    1DIPC   C1A27977   7.483   3.219   4.594  0.0533 -0.2292 -0.1267
    1DIPC   D2A27978   7.389   3.100   5.061  0.0453 -0.1469  0.0678
    1DIPC   D3A27979   7.717   3.228   5.363  0.2149  0.0343  0.2123
    1DIPC   C4A27980   7.571   3.070   5.768 -0.1088  0.2800 -0.1866
    1DIPC   C1B27981   7.876   3.540   4.554 -0.0297 -0.0132 -0.1516
    1DIPC   D2B27982   7.673   3.546   4.974 -0.0191  0.1289 -0.1703
    1DIPC   D3B27983   8.061   3.765   5.134 -0.1169 -0.1439  0.0354
    1DIPC   C4B27984   8.543   3.581   4.908 -0.2602  0.4682 -0.0721
    1DIPC   NC327985   4.461  15.784   2.524  0.1577  0.0374  0.1220
    1DIPC   PO427986   4.203  16.094   2.224 -0.0137  0.0848 -0.1402
    1DIPC   GL127987   4.128  16.153   2.621  0.2571 -0.0982  0.2009
    1DIPC   GL227988   4.251  16.441   2.724 -0.0270 -0.1663  0.1967
    1DIPC   C1A27989   4.378  16.120   3.124  0.0258 -0.0294 -0.1701
    1DIPC   D2A27990   4.619  15.850   3.357  0.1177  0.1861 -0.5289
    1DIPC   D3A27991   4.633  15.605   3.796 -0.1741  0.3459 -0.0351
    1DIPC   C4A27992   4.341  15.468   4.007 -0.1374 -0.2224 -0.0097
    1DIPC   C1B27993   3.946  16.459   3.095  0.1815  0.2643  0.0066
    1DIPC   D2B27994   4.042  16.633   3.561  0.0126  0.1073  0.0811
    1DIPC   D3B27995   4.031  16.824   3.916 -0.0182 -0.0782  0.3393
    1DIPC   C4B27996   3.846  16.484   4.095  0.2140 -0.1289 -0.0932
    1DIPC   NC327997   7.614  10.659   2.614 -0.2029 -0.0311 -0.1146
    1DIPC   PO427998   7.548  10.442   3.076  0.0714  0.2289  0.2059
    1DIPC   GL127999   7.426  10.740   3.499 -0.2934  0.0559  0.0823
    1DIPC   GL228000   7.452  10.978   3.681 -0.3493 -0.2134  0.0423
    1DIPC   C1A28001   7.156  10.601   3.879  0.0973  0.0894 -0.0425
    1DIPC   D2A28002   7.282  10.735   4.274 -0.0937  0.2574 -0.3227
    1DIPC   D3A28003   7.200  11.266   4.413 -0.0168  0.1000  0.0274
    1DIPC   C4A28004   7.065  11.611   4.624  0.1351  0.0554 -0.0176
    1DIPC   C1B28005   7.502  11.312   4.007 -0.1809 -0.1337 -0.1115
    1DIPC   D2B28006   7.564  11.620   4.386  0.1853 -0.2089 -0.0235
    1DIPC   D3B28007   7.491  11.433   4.858  0.0302 -0.0255  0.0215
    1DIPC   C4B28008   7.306  11.061   5.051 -0.2936 -0.0375  0.2263
    1DIPC   NC328009   0.455  28.973   3.010  0.1501  0.1472  0.0362
    1DIPC   PO428010   0.690  28.564   3.212  0.0065  0.1262 -0.0337
    1DIPC   GL128011   0.716  28.455   3.629  0.0089  0.0070  0.0556
    1DIPC   GL228012   0.443  28.420   3.811 -0.1848 -0.0131 -0.0131
    1DIPC   C1A28013   0.873  28.299   4.037 -0.1140 -0.2008  0.3781
    1DIPC   D2A28014   0.795  28.175   4.474 -0.2415  0.1986  0.0852
    1DIPC   D3A28015   0.897  27.674   4.401 -0.0464 -0.0367  0.2186
    1DIPC   C4A28016   0.614  27.405   4.497 -0.0491  0.1447 -0.1149
    1DIPC   C1B28017   0.162  28.754   3.993 -0.2934 -0.1767  0.3339
    1DIPC   D2B28018  -0.033  29.144   3.955 -0.3891  0.0417 -0.4366
    1DIPC   D3B28019  -0.254  29.390   4.207 -0.0527 -0.0524 -0.0641
    1DIPC   C4B28020  -0.403  29.289   4.596  0.1528  0.0118  0.0319
    1DIPC   NC328021   2.180  23.518   2.154 -0.1266  0.0603 -0.1457
    1DIPC   PO428022   1.785  23.506   2.535 -0.4255 -0.0760 -0.0332
    1DIPC   GL128023   2.139  23.525   2.811  0.1193  0.1324 -0.3231
    1DIPC   GL228024   2.339  23.215   2.956 -0.0436  0.0458 -0.3664
    1DIPC   C1A28025   2.322  23.686   3.277 -0.1689  0.0058  0.1492
    1DIPC   D2A28026   2.740  23.917   3.479 -0.0532 -0.0355  0.2338
    1DIPC   D3A28027   2.389  24.166   3.565 -0.0144  0.1472  0.0022
    1DIPC   C4A28028   2.310  24.405   3.918 -0.0497  0.1381  0.1608
    1DIPC   C1B28029   2.780  23.071   2.970  0.2263  0.1414  0.0353
    1DIPC   D2B28030   3.090  23.142   3.303  0.4788  0.1205  0.0031
    1DIPC   D3B28031   3.195  23.629   3.358 -0.1187  0.1052 -0.1432
    1DIPC   C4B28032   3.561  23.719   3.596 -0.0454  0.1475  0.1557
    1DIPC   NC328033   2.958  18.960   2.328  0.0575 -0.4135  0.1862
    1DIPC   PO428034   3.293  19.155   2.002  0.0570  0.1123  0.1876
    1DIPC   GL128035   3.384  19.317   2.396 -0.1223 -0.1183 -0.2183
    1DIPC   GL228036   3.365  19.045   2.706 -0.0171  0.0522  0.0742
    1DIPC   C1A28037   3.414  19.501   2.894 -0.0313  0.3185 -0.0702
    1DIPC   D2A28038   3.226  19.600   3.315 -0.1921  0.0281 -0.1674
    1DIPC   D3A28039   3.505  19.226   3.332  0.3791  0.2553 -0.1202
    1DIPC   C4A28040   3.667  18.838   3.038  0.0997  0.2005  0.0117
    1DIPC   C1B28041   3.869  19.106   2.692 -0.5346 -0.1723 -0.0660
    1DIPC   D2B28042   4.167  18.892   2.914 -0.2982 -0.0439 -0.1204
    1DIPC   D3B28043   4.122  18.516   3.053  0.2419 -0.1232 -0.0061
    1DIPC   C4B28044   4.479  18.313   3.041  0.1032  0.0023  0.0415
    1DIPC   NC328045   7.998   6.787   3.243  0.0607 -0.3540 -0.1186
    1DIPC   PO428046   8.033   6.316   3.215  0.0690  0.0993 -0.0881
    1DIPC   GL128047   7.820   6.351   3.491 -0.2572 -0.1721 -0.0190
    1DIPC   GL228048   8.129   6.359   3.739 -0.1996  0.0165  0.0996
    1DIPC   C1A28049   7.624   6.200   3.791 -0.0286  0.0293  0.0004
    1DIPC   D2A28050   7.234   6.259   3.962  0.4333  0.0836 -0.0783
    1DIPC   D3A28051   7.375   6.114   4.311  0.2841  0.1546  0.0916
    1DIPC   C4A28052   7.709   6.143   4.322 -0.1318 -0.0818 -0.3698
    1DIPC   C1B28053   8.309   6.631   4.003  0.0113  0.1031  0.0945
    1DIPC   D2B28054   8.668   6.706   4.376  0.1062  0.3232 -0.0519
    1DIPC   D3B28055   8.622   6.808   4.801  0.0381  0.1528 -0.0544
    1DIPC   C4B28056   8.909   6.730   5.106 -0.0687 -0.1371 -0.1194
    1DIPC   NC328057   2.654  20.315   1.804  0.4365  0.1077 -0.1434
    1DIPC   PO428058   2.399  20.197   2.254 -0.0840  0.1495  0.0800
    1DIPC   GL128059   2.145  20.421   2.564  0.1217 -0.0381  0.2096
    1DIPC   GL228060   2.230  20.358   2.916  0.0515  0.0347  0.0075
    1DIPC   C1A28061   1.714  20.483   2.724 -0.3501  0.1077 -0.0619
    1DIPC   D2A28062   1.557  20.698   3.029  0.0225 -0.0296 -0.1335
    1DIPC   D3A28063   1.722  20.820   3.402 -0.1459 -0.1281  0.0007
    1DIPC   C4A28064   2.075  20.684   3.696 -0.1101 -0.0719  0.2655
    1DIPC   C1B28065   1.953  20.430   3.238  0.1429  0.0056 -0.0840
    1DIPC   D2B28066   1.781  20.239   3.509  0.1158  0.1475  0.1209
    1DIPC   D3B28067   1.298  20.355   3.578  0.1118  0.0622 -0.0945
    1DIPC   C4B28068   1.072  20.545   3.105 -0.1233  0.1723 -0.2281
    1DIPC   NC328069  17.649   1.464   3.238 -0.0582  0.0274  0.2106
    1DIPC   PO428070  18.119   1.662   3.444 -0.2693  0.1652 -0.3350
    1DIPC   GL128071  17.952   1.981   3.673  0.0595 -0.3204  0.1767
    1DIPC   GL228072  17.739   1.926   3.882  0.0476  0.1763  0.0871
    1DIPC   C1A28073  18.140   2.339   3.921  0.1013 -0.2379 -0.0125
    1DIPC   D2A28074  18.201   2.510   4.326 -0.0591 -0.3751  0.2699
    1DIPC   D3A28075  18.134   2.891   4.602  0.2238  0.4152  0.1561
    1DIPC   C4A28076  18.257   3.310   4.533 -0.2442  0.3540 -0.1775
    1DIPC   C1B28077  17.419   2.233   4.112 -0.0156  0.1373  0.0882
    1DIPC   D2B28078  17.400   2.418   4.450  0.1157 -0.0896  0.2095
    1DIPC   D3B28079  17.696   2.659   4.266 -0.0235 -0.0245  0.0673
    1DIPC   C4B28080  17.732   3.187   4.352 -0.1652 -0.0748 -0.2159
    1DIPC   NC328081  25.587  14.745   1.923 -0.0542  0.0354 -0.0917
    1DIPC   PO428082  25.205  15.011   2.146  0.1127 -0.2113 -0.0790
    1DIPC   GL128083  25.007  14.974   2.639 -0.1072  0.1198 -0.0387
    1DIPC   GL228084  24.822  15.160   2.755  0.3417  0.0636 -0.0252
    1DIPC   C1A28085  24.974  14.662   2.998  0.1091  0.0509  0.0103
    1DIPC   D2A28086  25.135  14.351   3.154 -0.3905  0.0048  0.2801
    1DIPC   D3A28087  24.874  14.357   3.516 -0.0652 -0.1386  0.2053
    1DIPC   C4A28088  24.699  14.034   3.764  0.1476 -0.1232  0.1147
    1DIPC   C1B28089  24.866  15.121   3.154 -0.1506  0.1401  0.1116
    1DIPC   D2B28090  25.156  14.911   3.447  0.2775 -0.1033 -0.0809
    1DIPC   D3B28091  24.790  14.804   3.684  0.1061  0.3282 -0.0565
    1DIPC   C4B28092  24.516  14.768   3.354 -0.1352  0.0367  0.0043
    1DIPC   NC328093   5.954   9.814   3.476  0.1183 -0.0837  0.0479
    1DIPC   PO428094   5.479   9.907   3.374  0.0516  0.1995  0.1518
    1DIPC   GL128095   5.331   9.724   3.772 -0.0152  0.2129 -0.4251
    1DIPC   GL228096   5.111   9.509   3.673 -0.0731 -0.1281  0.3297
    1DIPC   C1A28097   5.328   9.899   4.212 -0.2800 -0.0801 -0.1838
    1DIPC   D2A28098   5.264  10.156   4.599 -0.0560 -0.0779 -0.1676
    1DIPC   D3A28099   5.210   9.818   4.907 -0.0672  0.2609 -0.0949
    1DIPC   C4A28100   4.870   9.619   4.852 -0.0650 -0.0879  0.0412
    1DIPC   C1B28101   5.084   9.471   4.215 -0.1168  0.1355  0.1250
    1DIPC   D2B28102   5.314   9.489   4.531  0.0611 -0.2597 -0.0654
    1DIPC   D3B28103   5.030   9.111   4.554  0.0471 -0.0602 -0.0461
    1DIPC   C4B28104   5.096   8.749   4.304  0.2824  0.0024  0.0120
    1DIPC   NC328105  21.571  27.462   3.232 -0.1563 -0.2078  0.1745
    1DIPC   PO428106  21.274  27.895   3.240  0.0338 -0.1046 -0.2662
    1DIPC   GL128107  21.183  28.230   3.607 -0.1930 -0.2687 -0.2637
    1DIPC   GL228108  21.358  28.323   3.755  0.1748 -0.2746  0.0477
    1DIPC   C1A28109  20.866  28.280   3.959  0.0931  0.0016  0.3281
    1DIPC   D2A28110  20.856  28.482   4.404 -0.0575 -0.0794  0.1235
    1DIPC   D3A28111  20.846  28.414   4.838 -0.1343  0.4408 -0.0203
    1DIPC   C4A28112  20.598  28.328   5.186  0.2154 -0.0906  0.0851
    1DIPC   C1B28113  21.466  28.451   4.145 -0.0025  0.1729  0.1832
    1DIPC   D2B28114  21.400  28.485   4.537 -0.0825  0.1906  0.1452
    1DIPC   D3B28115  21.423  28.347   4.979  0.2694 -0.0496 -0.2127
    1DIPC   C4B28116  21.156  28.665   5.175  0.1782 -0.1079 -0.2977
    1DIPC   NC328117   2.733  23.067   1.562  0.0206 -0.0658  0.1167
    1DIPC   PO428118   2.466  23.153   2.012  0.0681 -0.3505 -0.2735
    1DIPC   GL128119   2.589  22.970   2.388  0.0373  0.0232 -0.1742
    1DIPC   GL228120   2.945  23.053   2.471 -0.0352  0.0527 -0.0206
    1DIPC   C1A28121   2.688  22.565   2.608 -0.0117 -0.0656  0.0142
    1DIPC   D2A28122   3.030  22.627   2.972 -0.0454 -0.0041 -0.1567
    1DIPC   D3A28123   3.207  22.534   3.385 -0.1155  0.0811 -0.1586
    1DIPC   C4A28124   3.016  22.257   3.718 -0.0999  0.1517 -0.3208
    1DIPC   C1B28125   3.284  23.021   2.813 -0.2771  0.3607  0.0100
    1DIPC   D2B28126   3.559  22.871   3.198  0.2185 -0.2066  0.2402
    1DIPC   D3B28127   3.606  23.302   3.392  0.0938  0.0600  0.0201
    1DIPC   C4B28128   3.286  23.353   3.783 -0.1873  0.2906  0.3895
    1DIPC   NC328129  10.555   2.206   3.676 -0.1471 -0.0266  0.0052
    1DIPC   PO428130  10.926   2.407   3.684  0.0950 -0.0160  0.0025
    1DIPC   GL128131  10.935   2.601   4.042 -0.2228  0.1735  0.0757
    1DIPC   GL228132  10.906   2.514   4.392  0.0248  0.1935  0.1579
    1DIPC   C1A28133  10.863   2.962   4.231 -0.0641  0.0196  0.1240
    1DIPC   D2A28134  10.900   3.291   4.609  0.0353 -0.1750 -0.0415
    1DIPC   D3A28135  10.821   3.103   4.950  0.1252  0.2546 -0.0984
    1DIPC   C4A28136  10.471   2.922   5.145 -0.0819 -0.0409 -0.0579
    1DIPC   C1B28137  10.808   2.139   4.238  0.0179  0.1960 -0.0106
    1DIPC   D2B28138  10.604   1.791   3.929  0.1505 -0.0593  0.1996
    1DIPC   D3B28139  10.998   1.656   4.100 -0.0630 -0.1572 -0.2843
    1DIPC   C4B28140  10.995   1.346   4.415  0.1532 -0.0471 -0.3684
    1DIPC   NC328141  10.007   2.814   3.310  0.0037  0.2653 -0.0236
    1DIPC   PO428142  10.284   2.904   3.676 -0.0155 -0.0949  0.2257
    1DIPC   GL128143  10.346   2.782   4.114  0.0050 -0.1335 -0.0825
    1DIPC   GL228144   9.982   2.752   4.209 -0.1537 -0.0195 -0.1600
    1DIPC   C1A28145  10.387   2.408   4.370  0.1504 -0.0925  0.4787
    1DIPC   D2A28146  10.549   2.076   4.741  0.1235 -0.3019  0.0674
    1DIPC   D3A28147  10.512   2.117   5.164 -0.0597 -0.1566  0.0913
    1DIPC   C4A28148  10.341   2.435   5.349  0.3021 -0.0994  0.0076
    1DIPC   C1B28149   9.645   2.851   4.412  0.0366 -0.1619  0.1175
    1DIPC   D2B28150   9.551   3.145   4.750 -0.3150 -0.1776 -0.0781
    1DIPC   D3B28151   9.385   3.520   5.026  0.1273 -0.1563  0.0368
    1DIPC   C4B28152   9.399   3.404   5.468  0.1370  0.1160 -0.1386
    1DIPC   NC328153   5.549  19.803   1.850 -0.0913 -0.0586 -0.0269
    1DIPC   PO428154   5.488  19.833   2.291 -0.1084  0.1975 -0.2493
    1DIPC   GL128155   5.665  20.113   2.442  0.2614  0.0942  0.1005
    1DIPC   GL228156   5.709  19.943   2.815 -0.0474 -0.1517 -0.0398
    1DIPC   C1A28157   6.105  20.224   2.651 -0.0547 -0.1757  0.1995
    1DIPC   D2A28158   6.495  20.500   2.625 -0.2094  0.1204  0.3635
    1DIPC   D3A28159   6.373  20.864   2.685  0.1558  0.1999 -0.1474
    1DIPC   C4A28160   6.537  21.211   2.916  0.1434 -0.0598 -0.0944
    1DIPC   C1B28161   5.467  19.726   3.109  0.0666  0.4696  0.0331
    1DIPC   D2B28162   5.212  19.679   3.581 -0.0189  0.1274 -0.2763
    1DIPC   D3B28163   4.786  19.543   3.765  0.0985 -0.1194  0.0261
    1DIPC   C4B28164   4.626  19.465   4.124  0.0573  0.2661 -0.0539
    1DIPC   NC328165   6.862   5.910   3.460 -0.0319 -0.0439 -0.2414
    1DIPC   PO428166   6.391   5.990   3.519  0.2142  0.1561 -0.3567
    1DIPC   GL128167   6.311   6.043   3.882 -0.0757  0.1143  0.1257
    1DIPC   GL228168   6.334   5.820   4.081  0.3571  0.1440  0.0478
    1DIPC   C1A28169   5.974   6.067   4.234 -0.0769  0.3017  0.1420
    1DIPC   D2A28170   5.814   6.035   4.645  0.1121 -0.0907  0.0549
    1DIPC   D3A28171   6.129   5.985   4.922 -0.0126  0.0013  0.1923
    1DIPC   C4A28172   6.536   6.047   4.982 -0.3067 -0.0634  0.3019
    1DIPC   C1B28173   6.322   5.726   4.516  0.0490 -0.1309  0.5961
    1DIPC   D2B28174   6.295   5.531   4.960 -0.0638 -0.3496  0.1149
    1DIPC   D3B28175   6.602   5.389   5.270 -0.1376 -0.0937 -0.0233
    1DIPC   C4B28176   6.867   5.179   5.092  0.1182 -0.0873  0.0729
    1DIPC   NC328177  16.866  28.988   3.000  0.2084  0.0811  0.2556
    1DIPC   PO428178  17.200  29.216   3.257  0.0975 -0.1571 -0.0546
    1DIPC   GL128179  17.251  28.899   3.584 -0.0085  0.3563  0.1952
    1DIPC   GL228180  17.448  28.708   3.689  0.2120  0.1121  0.0819
    1DIPC   C1A28181  16.991  28.763   3.971 -0.1591  0.0398  0.2484
    1DIPC   D2A28182  16.652  28.631   4.237  0.0885  0.0747 -0.0619
    1DIPC   D3A28183  16.904  28.549   4.585 -0.0551 -0.0885 -0.1332
    1DIPC   C4A28184  16.827  28.539   4.968 -0.1467 -0.0669  0.1952
    1DIPC   C1B28185  17.475  28.951   4.070 -0.0066  0.0980 -0.0531
    1DIPC   D2B28186  17.624  29.232   4.429  0.1280 -0.1344 -0.2702
    1DIPC   D3B28187  17.250  29.308   4.677 -0.0449 -0.1013  0.0554
    1DIPC   C4B28188  17.061  28.968   4.785 -0.2604 -0.1303 -0.1711
    1DIPC   NC328189  10.478  22.275   2.311  0.0363 -0.2099  0.1909
    1DIPC   PO428190  10.145  21.936   2.434  0.0387 -0.0298  0.3073
    1DIPC   GL128191  10.111  21.645   2.851 -0.3253  0.0617  0.2004
    1DIPC   GL228192  10.318  21.278   2.832  0.3355 -0.0674 -0.0127
    1DIPC   C1A28193  10.142  21.791   3.245 -0.1397  0.2398 -0.0392
    1DIPC   D2A28194  10.241  21.687   3.668 -0.2984 -0.1731 -0.0075
    1DIPC   D3A28195  10.079  21.438   4.082  0.0171 -0.3095 -0.0287
    1DIPC   C4A28196   9.717  21.261   4.245 -0.0491  0.4352  0.0036
    1DIPC   C1B28197  10.230  21.300   3.239 -0.2696 -0.1497 -0.2368
    1DIPC   D2B28198  10.351  21.078   3.661  0.1149 -0.0971 -0.0700
    1DIPC   D3B28199  10.236  20.890   3.998  0.1118  0.1709  0.1011
    1DIPC   C4B28200  10.463  20.694   4.393 -0.1579  0.2548 -0.0432
    1DIPC   NC328201   8.857  16.356   2.197  0.4348  0.0518 -0.3891
    1DIPC   PO428202   9.260  16.451   2.360 -0.2116  0.0074 -0.1538
    1DIPC   GL128203   9.140  16.606   2.741 -0.2205  0.2476 -0.2384
    1DIPC   GL228204   8.768  16.442   2.928  0.5143  0.0385 -0.1063
    1DIPC   C1A28205   9.292  16.518   3.166 -0.1116 -0.0759 -0.0905
    1DIPC   D2A28206   9.388  16.323   3.578 -0.1542 -0.0081  0.0052
    1DIPC   D3A28207   9.064  16.354   3.743 -0.0920  0.0788 -0.0590
    1DIPC   C4A28208   9.052  16.354   4.194 -0.0258 -0.0366  0.3066
    1DIPC   C1B28209   8.919  16.205   3.279  0.3731 -0.0149  0.1836
    1DIPC   D2B28210   8.777  15.898   3.561  0.3582 -0.2322 -0.1096
    1DIPC   D3B28211   8.774  16.008   3.925 -0.1298 -0.3880  0.2050
    1DIPC   C4B28212   8.805  15.803   4.358  0.1985  0.2328  0.1418
    1DIPC   NC328213  26.911   3.987   3.430  0.1317  0.1919  0.3201
    1DIPC   PO428214  27.044   3.606   3.144 -0.1126  0.0267 -0.0044
    1DIPC   GL128215  27.330   3.674   3.518 -0.1621  0.0010 -0.0228
    1DIPC   GL228216  27.605   3.459   3.523 -0.0104  0.0126 -0.2379
    1DIPC   C1A28217  27.274   3.725   3.926  0.1345  0.2206 -0.2029
    1DIPC   D2A28218  27.041   3.977   4.191 -0.0672 -0.1562  0.0738
    1DIPC   D3A28219  26.585   3.972   4.388 -0.2055  0.0621 -0.1069
    1DIPC   C4A28220  26.435   4.377   4.439  0.3682 -0.0692 -0.0517
    1DIPC   C1B28221  27.482   3.306   3.939  0.3412 -0.3056 -0.3451
    1DIPC   D2B28222  27.464   3.497   4.341  0.3426 -0.2884 -0.3058
    1DIPC   D3B28223  27.957   3.667   4.414  0.0599 -0.0084 -0.1336
    1DIPC   C4B28224  28.456   3.417   4.313  0.1446  0.2322 -0.2160
    1DIPC   NC328225  21.210  24.624   2.984 -0.1497  0.2409  0.4123
    1DIPC   PO428226  21.654  24.900   2.939 -0.1853 -0.4799  0.2103
    1DIPC   GL128227  21.865  24.994   3.335 -0.0798  0.1055 -0.0994
    1DIPC   GL228228  22.111  25.158   3.462  0.0422 -0.1621 -0.0061
    1DIPC   C1A28229  21.744  25.232   3.763 -0.1462 -0.0729  0.0982
    1DIPC   D2A28230  21.632  25.285   4.130 -0.1240 -0.0478 -0.0827
    1DIPC   D3A28231  22.065  25.290   4.126  0.0794  0.0192 -0.1743
    1DIPC   C4A28232  22.344  25.561   4.075 -0.0714  0.0230 -0.2119
    1DIPC   C1B28233  22.102  24.870   3.780 -0.0242 -0.2742  0.1166
    1DIPC   D2B28234  21.973  24.526   4.183  0.1072  0.0321 -0.1428
    1DIPC   D3B28235  22.075  24.904   4.481 -0.0629 -0.0896 -0.4419
    1DIPC   C4B28236  22.187  25.152   4.907 -0.1568  0.0113  0.2362
    1DIPC   NC328237   2.500  13.374   2.705  0.3668 -0.1589 -0.3688
    1DIPC   PO428238   2.096  13.694   2.690  0.1629 -0.0609  0.0157
    1DIPC   GL128239   2.036  13.349   3.050  0.0557 -0.3355 -0.3198
    1DIPC   GL228240   2.330  13.467   3.214 -0.0589 -0.1355  0.0368
    1DIPC   C1A28241   1.979  13.059   3.354  0.0825 -0.0704  0.1239
    1DIPC   D2A28242   1.787  12.796   3.486  0.2596  0.0200 -0.1969
    1DIPC   D3A28243   1.762  13.031   3.802 -0.1141 -0.0991 -0.0679
    1DIPC   C4A28244   2.107  13.079   3.965 -0.1321 -0.0522  0.0207
    1DIPC   C1B28245   2.505  13.707   3.558 -0.1743 -0.0882  0.0155
    1DIPC   D2B28246   2.392  13.913   3.983 -0.2424 -0.0263 -0.1064
    1DIPC   D3B28247   2.514  13.446   4.019  0.0307 -0.0768  0.0921
    1DIPC   C4B28248   2.813  13.337   4.425  0.1258  0.1769  0.1920
    1DIPC   NC328249   1.833   0.898   2.625 -0.2038  0.0294 -0.3256
    1DIPC   PO428250   2.046   0.836   3.049  0.0093 -0.0339 -0.1244
    1DIPC   GL128251   1.903   0.585   3.417 -0.0104 -0.2100  0.0244
    1DIPC   GL228252   1.706   0.841   3.556  0.1748  0.0108 -0.1504
    1DIPC   C1A28253   1.865   0.308   3.692 -0.0655  0.0206 -0.0141
    1DIPC   D2A28254   1.682   0.181   3.975  0.0383  0.0013  0.1236
    1DIPC   D3A28255   1.788  -0.295   4.171  0.1999 -0.1911 -0.0880
    1DIPC   C4A28256   2.105  -0.316   4.404  0.3367 -0.0048  0.3553
    1DIPC   C1B28257   1.640   0.669   3.978  0.0757  0.0419 -0.1583
    1DIPC   D2B28258   1.589   0.521   4.359  0.0383 -0.0786 -0.0182
    1DIPC   D3B28259   1.539   0.997   4.427 -0.2823 -0.2095  0.1007
    1DIPC   C4B28260   1.618   1.245   4.768  0.1357  0.2692  0.0983
    1DIPC   NC328261  25.908  13.211   2.346  0.1675  0.4371 -0.2128
    1DIPC   PO428262  25.575  13.444   2.157  0.0932 -0.1144 -0.2073
    1DIPC   GL128263  25.461  13.382   2.514  0.1468 -0.1285 -0.0044
    1DIPC   GL228264  25.276  13.590   2.580  0.1942  0.0823  0.2402
    1DIPC   C1A28265  25.583  13.259   2.972  0.0478  0.3121  0.1254
    1DIPC   D2A28266  25.838  12.848   3.083  0.0652  0.1898  0.0695
    1DIPC   D3A28267  25.541  12.619   3.268 -0.2603 -0.3326 -0.1270
    1DIPC   C4A28268  25.668  12.306   3.534  0.0433 -0.1576  0.2048
    1DIPC   C1B28269  25.365  13.694   2.980  0.0061 -0.0534  0.2077
    1DIPC   D2B28270  25.278  13.524   3.389  0.0725  0.1022  0.0649
    1DIPC   D3B28271  25.387  13.399   3.772 -0.1248  0.1627 -0.1299
    1DIPC   C4B28272  25.697  13.195   3.952 -0.2546  0.1233 -0.0102
    1DIPC   NC328273  22.328   3.143   3.336  0.1519  0.0791  0.2430
    1DIPC   PO428274  22.083   3.434   3.403  0.1062 -0.0129  0.0367
    1DIPC   GL128275  21.796   3.558   3.613 -0.0839  0.0754  0.2181
    1DIPC   GL228276  21.656   3.935   3.542  0.0378  0.2906  0.1021
    1DIPC   C1A28277  21.550   3.350   3.902  0.0036  0.0439  0.3067
    1DIPC   D2A28278  21.463   3.497   4.328  0.3985  0.1398 -0.0138
    1DIPC   D3A28279  21.650   3.238   4.654  0.4177 -0.0409 -0.3380
    1DIPC   C4A28280  21.998   3.365   4.945 -0.1831 -0.0474  0.2218
    1DIPC   C1B28281  21.667   4.363   3.676 -0.2843  0.0221 -0.1143
    1DIPC   D2B28282  21.804   4.651   3.805 -0.0531 -0.1333 -0.1490
    1DIPC   D3B28283  21.546   4.805   3.501  0.0722  0.0175  0.1658
    1DIPC   C4B28284  21.692   5.197   3.316  0.1381  0.1162 -0.0892
    1DIPC   NC328285  23.062  16.246   1.378 -0.0829 -0.3428 -0.2809
    1DIPC   PO428286  23.274  15.907   1.659 -0.1476  0.1554 -0.0158
    1DIPC   GL128287  23.061  15.749   2.064 -0.0398  0.1588 -0.2230
    1DIPC   GL228288  22.955  16.040   2.331  0.0127 -0.1901 -0.0366
    1DIPC   C1A28289  23.222  15.659   2.436 -0.0832 -0.2720 -0.1355
    1DIPC   D2A28290  23.508  15.585   2.675 -0.0091  0.0870 -0.0756
    1DIPC   D3A28291  23.295  15.204   2.690 -0.0002 -0.1409 -0.0773
    1DIPC   C4A28292  23.220  15.058   3.139  0.1046 -0.2130  0.0871
    1DIPC   C1B28293  22.902  16.233   2.741 -0.0041 -0.0205 -0.0178
    1DIPC   D2B28294  23.051  16.388   3.078  0.2213  0.3108  0.0588
    1DIPC   D3B28295  22.864  16.237   3.341 -0.5585 -0.0404  0.0980
    1DIPC   C4B28296  23.022  15.902   3.603  0.0049  0.0979  0.1997
    1DIPC   NC328297  28.120  16.741   2.080  0.0255 -0.0705  0.0067
    1DIPC   PO428298  28.358  16.871   2.421  0.3239  0.0342  0.1972
    1DIPC   GL128299  28.251  16.709   2.796  0.0550  0.1251  0.2248
    1DIPC   GL228300  28.537  16.499   2.762  0.0256 -0.1063 -0.0162
    1DIPC   C1A28301  28.555  17.012   3.020 -0.3023  0.0196 -0.1766
    1DIPC   D2A28302  28.665  16.934   3.525  0.0655  0.0066 -0.2989
    1DIPC   D3A28303  28.959  17.238   3.740 -0.1021  0.1226 -0.1583
    1DIPC   C4A28304  28.792  17.440   4.159 -0.0383  0.0354  0.2409
    1DIPC   C1B28305  28.453  16.554   3.233 -0.2329 -0.1057  0.0845
    1DIPC   D2B28306  28.238  16.746   3.675  0.1789 -0.4508  0.1136
    1DIPC   D3B28307  28.600  16.793   4.015 -0.2733  0.1548 -0.2083
    1DIPC   C4B28308  28.623  16.454   4.224 -0.3660  0.0033  0.0482
    1DIPC   NC328309  20.495   8.485   2.499 -0.0695  0.0743  0.3485
    1DIPC   PO428310  20.212   8.776   2.324 -0.1729 -0.0631 -0.1690
    1DIPC   GL128311  19.890   8.902   2.606 -0.1150 -0.1028  0.1094
    1DIPC   GL228312  19.874   8.597   2.718  0.5341  0.0307  0.3409
    1DIPC   C1A28313  19.686   9.068   2.920 -0.0958  0.4757  0.2500
    1DIPC   D2A28314  19.371   9.181   3.191  0.2932 -0.3108  0.1578
    1DIPC   D3A28315  19.339   9.549   3.524  0.1941  0.2442 -0.1519
    1DIPC   C4A28316  19.536   9.538   3.976  0.0304 -0.0675 -0.1206
    1DIPC   C1B28317  19.894   8.673   3.224  0.1799  0.2203 -0.1172
    1DIPC   D2B28318  20.110   8.932   3.506 -0.1208 -0.0756 -0.0759
    1DIPC   D3B28319  19.702   8.713   3.712  0.0325 -0.0592  0.0050
    1DIPC   C4B28320  19.555   8.693   4.137  0.0823  0.1149  0.1428
    1DIPC   NC328321   9.965  28.044   3.328  0.3201 -0.3395  0.1947
    1DIPC   PO428322   9.580  28.400   3.333  0.0341 -0.0495 -0.0457
    1DIPC   GL128323   9.868  28.362   3.758  0.2088 -0.2713 -0.0028
    1DIPC   GL228324   9.997  28.064   3.827 -0.1654 -0.0480  0.3244
    1DIPC   C1A28325   9.560  28.136   4.128  0.0544 -0.0153  0.0428
    1DIPC   D2A28326   9.589  28.012   4.573 -0.0746 -0.0208  0.0171
    1DIPC   D3A28327   9.877  27.898   4.750  0.0520 -0.0214  0.1929
    1DIPC   C4A28328  10.327  28.062   4.803 -0.1822  0.3956 -0.0294
    1DIPC   C1B28329  10.170  27.877   4.307  0.0026 -0.0632  0.1062
    1DIPC   D2B28330  10.287  27.561   4.572  0.0926 -0.1832 -0.1090
    1DIPC   D3B28331  10.582  27.658   4.890  0.1927  0.1253  0.0547
    1DIPC   C4B28332  10.877  27.905   5.198  0.1008 -0.2757  0.0031
    1DIPC   NC328333  19.423  20.804   2.484 -0.2012 -0.0420  0.3631
    1DIPC   PO428334  19.217  20.538   2.727  0.2277 -0.1720 -0.3921
    1DIPC   GL128335  19.160  20.555   3.163 -0.0432 -0.1197  0.0934
    1DIPC   GL228336  19.176  20.219   3.236  0.3017  0.1958  0.0081
    1DIPC   C1A28337  18.876  20.664   3.483  0.0326  0.1553 -0.0585
    1DIPC   D2A28338  18.906  20.855   3.902 -0.2687 -0.2476 -0.0824
    1DIPC   D3A28339  19.258  20.672   3.824 -0.1335  0.2036  0.0916
    1DIPC   C4A28340  19.527  20.629   4.229 -0.3904 -0.0256 -0.0108
    1DIPC   C1B28341  19.221  20.244   3.644  0.0612 -0.1975  0.0409
    1DIPC   D2B28342  19.152  20.219   4.065  0.1950 -0.0087 -0.0767
    1DIPC   D3B28343  19.550  20.076   4.266 -0.0307 -0.1162  0.1681
    1DIPC   C4B28344  19.796  20.307   3.996  0.0743  0.1443 -0.1638
    1DIPC   NC328345  28.157   8.259   2.315  0.0927  0.0832 -0.1924
    1DIPC   PO428346  28.504   8.108   2.467 -0.4616  0.1767  0.3297
    1DIPC   GL128347  28.389   8.021   2.846 -0.1688 -0.1514  0.0877
    1DIPC   GL228348  28.246   8.278   2.967 -0.1319 -0.2021 -0.2078
    1DIPC   C1A28349  28.507   7.964   3.291  0.1377  0.1824  0.0965
    1DIPC   D2A28350  28.694   8.218   3.538  0.0981 -0.0839  0.1723
    1DIPC   D3A28351  28.586   8.266   3.985 -0.0555 -0.1751  0.0132
    1DIPC   C4A28352  28.159   8.509   4.071 -0.0460  0.0194 -0.2846
    1DIPC   C1B28353  28.478   8.491   3.153  0.2299 -0.1497 -0.4654
    1DIPC   D2B28354  28.879   8.639   3.342  0.2074  0.1556 -0.5242
    1DIPC   D3B28355  28.949   8.741   3.789 -0.0008 -0.0551  0.0062
    1DIPC   C4B28356  29.191   8.773   3.964 -0.1144 -0.2027 -0.1017
    1DIPC   NC328357  22.942  26.800   2.955 -0.2363  0.1840 -0.1716
    1DIPC   PO428358  23.110  27.215   3.004  0.4616  0.0086 -0.0630
    1DIPC   GL128359  23.081  27.159   3.366 -0.1538  0.5446 -0.1666
    1DIPC   GL228360  23.192  27.553   3.477 -0.2109  0.0040  0.0008
    1DIPC   C1A28361  23.219  27.067   3.806  0.2227 -0.1720  0.1828
    1DIPC   D2A28362  23.446  27.011   4.173  0.0440  0.0225  0.0892
    1DIPC   D3A28363  23.263  27.292   4.395 -0.1071 -0.0410 -0.2080
    1DIPC   C4A28364  23.476  27.419   4.752  0.0884 -0.0639  0.0495
    1DIPC   C1B28365  22.792  27.546   3.596  0.1471  0.1706  0.0402
    1DIPC   D2B28366  22.330  27.405   3.628 -0.2551  0.2277 -0.0892
    1DIPC   D3B28367  22.200  27.128   3.936  0.3894  0.0293  0.0322
    1DIPC   C4B28368  22.354  26.937   4.306  0.1989 -0.0200 -0.1838
    1DIPC   NC328369  25.206  27.309   2.987 -0.1291 -0.1134 -0.1408
    1DIPC   PO428370  25.564  27.661   3.102  0.2971 -0.0496  0.0916
    1DIPC   GL128371  25.702  27.557   3.540 -0.0175 -0.0888  0.0125
    1DIPC   GL228372  25.519  27.231   3.424  0.0650 -0.1005  0.1242
    1DIPC   C1A28373  25.854  27.377   3.887  0.2978  0.2074  0.0020
    1DIPC   D2A28374  26.230  27.383   4.143 -0.2173 -0.0467  0.0272
    1DIPC   D3A28375  25.917  27.572   4.438 -0.0596 -0.0683 -0.1212
    1DIPC   C4A28376  26.042  28.010   4.670  0.5235 -0.0870 -0.1697
    1DIPC   C1B28377  25.802  27.057   3.492 -0.1647 -0.1339 -0.2757
    1DIPC   D2B28378  26.212  27.027   3.696 -0.1224 -0.0594 -0.0168
    1DIPC   D3B28379  26.107  26.834   4.072  0.2076  0.1289  0.1416
    1DIPC   C4B28380  26.330  26.497   4.289  0.0931  0.3263 -0.0111
    1DIPC   NC328381  16.494  21.860   2.150 -0.0789 -0.1524  0.1027
    1DIPC   PO428382  16.333  21.768   2.516 -0.1542  0.0519  0.1927
    1DIPC   GL128383  16.179  21.699   2.799 -0.1145  0.2801  0.0683
    1DIPC   GL228384  16.126  21.339   2.841  0.0550 -0.2712  0.1850
    1DIPC   C1A28385  15.840  21.845   3.023 -0.0417  0.3529  0.0086
    1DIPC   D2A28386  15.697  22.034   3.481 -0.2465 -0.1423  0.0165
    1DIPC   D3A28387  15.435  22.422   3.197  0.0115 -0.0334  0.2037
    1DIPC   C4A28388  15.410  22.602   2.795  0.2191  0.1372 -0.1585
    1DIPC   C1B28389  16.193  21.392   3.202 -0.1096 -0.2015 -0.1193
    1DIPC   D2B28390  16.108  21.659   3.533  0.0638 -0.0242  0.0716
    1DIPC   D3B28391  15.977  21.469   3.755 -0.0996 -0.0082  0.0346
    1DIPC   C4B28392  16.219  21.634   4.075  0.0427  0.1262  0.1069
    1DIPC   NC328393  21.759  14.302   1.938  0.1935 -0.0523  0.2571
    1DIPC   PO428394  21.730  14.648   1.756 -0.2290  0.0187 -0.1762
    1DIPC   GL128395  22.012  14.655   2.181  0.0434 -0.1119  0.2837
    1DIPC   GL228396  21.983  14.366   2.375 -0.1254  0.0664 -0.1881
    1DIPC   C1A28397  21.988  14.827   2.572  0.0976 -0.1984 -0.1538
    1DIPC   D2A28398  22.037  14.651   2.921 -0.1175  0.0282  0.0776
    1DIPC   D3A28399  21.921  14.935   3.166 -0.0590  0.1704  0.1312
    1DIPC   C4A28400  22.105  14.941   3.598  0.0209  0.1753  0.1685
    1DIPC   C1B28401  22.405  14.311   2.671 -0.0822 -0.1195  0.0442
    1DIPC   D2B28402  22.851  14.483   2.643 -0.2749 -0.4284 -0.0306
    1DIPC   D3B28403  23.044  14.463   3.069  0.0156 -0.1802  0.2535
    1DIPC   C4B28404  22.938  14.718   3.432  0.1254  0.1229  0.1102
    1DIPC   NC328405  27.700  12.782   2.527 -0.3575  0.1909 -0.2886
    1DIPC   PO428406  27.975  12.496   2.598 -0.0709  0.0885 -0.0796
    1DIPC   GL128407  27.692  12.719   3.012 -0.2827 -0.0763  0.0661
    1DIPC   GL228408  27.300  12.685   3.006  0.0439  0.1873  0.0343
    1DIPC   C1A28409  27.687  12.686   3.494 -0.2208  0.1116 -0.1058
    1DIPC   D2A28410  27.304  12.578   3.773 -0.0729  0.1895  0.0218
    1DIPC   D3A28411  27.401  12.131   3.717  0.1937  0.1621  0.1440
    1DIPC   C4A28412  27.853  12.044   3.944  0.0597  0.0050 -0.1578
    1DIPC   C1B28413  27.234  13.003   3.423 -0.2191  0.0056 -0.0534
    1DIPC   D2B28414  27.078  13.153   3.773 -0.0486 -0.1359  0.0649
    1DIPC   D3B28415  27.158  13.427   4.203  0.3251 -0.0077  0.0237
    1DIPC   C4B28416  27.501  13.284   4.493 -0.2104  0.1250  0.0785
    1DIPC   NC328417   6.166   2.341   3.371  0.0107  0.1916 -0.3852
    1DIPC   PO428418   5.704   2.132   3.443 -0.0578 -0.1361 -0.0664
    1DIPC   GL128419   5.861   2.117   3.853  0.3304 -0.1050 -0.0835
    1DIPC   GL228420   5.785   1.819   3.917  0.2439  0.0021  0.0790
    1DIPC   C1A28421   5.997   2.154   4.287  0.1250  0.1871  0.3032
    1DIPC   D2A28422   5.886   2.348   4.636 -0.0869 -0.2190 -0.0384
    1DIPC   D3A28423   5.680   2.338   5.004  0.0992 -0.1231 -0.3263
    1DIPC   C4A28424   5.883   2.197   5.374 -0.0802  0.1432 -0.3893
    1DIPC   C1B28425   5.945   1.606   4.239  0.1246 -0.3171 -0.1084
    1DIPC   D2B28426   6.139   1.423   4.523 -0.3820 -0.0867  0.1843
    1DIPC   D3B28427   6.181   1.577   4.873  0.0562 -0.1498 -0.1713
    1DIPC   C4B28428   6.064   1.963   4.889  0.1622  0.4157 -0.1519
    1DIPC   NC328429  16.301  10.330   2.213 -0.3992 -0.3030  0.0022
    1DIPC   PO428430  16.667  10.670   2.379 -0.2952  0.0995  0.2208
    1DIPC   GL128431  16.733  10.468   2.843 -0.0434  0.0289 -0.2372
    1DIPC   GL228432  17.063  10.448   2.790  0.1036  0.0509  0.0271
    1DIPC   C1A28433  16.536  10.411   3.287  0.1606  0.1528  0.2706
    1DIPC   D2A28434  16.397  10.210   3.614 -0.3325  0.1417  0.0284
    1DIPC   D3A28435  16.590  10.111   4.039  0.0700 -0.1423 -0.1206
    1DIPC   C4A28436  16.264  10.288   4.395  0.0975  0.2330  0.3809
    1DIPC   C1B28437  17.368  10.679   2.897  0.0957 -0.0979  0.2016
    1DIPC   D2B28438  17.762  10.858   3.002  0.1255  0.4033  0.0043
    1DIPC   D3B28439  17.432  11.112   3.058  0.0626 -0.2397 -0.0813
    1DIPC   C4B28440  17.448  11.546   3.064 -0.1338 -0.1488  0.3193
    1DIPC   NC328441  14.619   2.413   3.232 -0.2001 -0.2294  0.0734
    1DIPC   PO428442  14.878   2.789   3.275 -0.0063 -0.1611 -0.2666
    1DIPC   GL128443  15.080   2.984   3.586  0.0172  0.1730 -0.1759
    1DIPC   GL228444  14.938   3.252   3.848 -0.1391  0.2874  0.1144
    1DIPC   C1A28445  15.237   2.929   4.042 -0.0242  0.1067  0.0301
    1DIPC   D2A28446  15.724   2.965   4.041 -0.0036 -0.0730  0.0662
    1DIPC   D3A28447  15.850   2.790   4.410  0.1983 -0.1473  0.2318
    1DIPC   C4A28448  15.813   2.951   4.835 -0.1170 -0.2781 -0.1531
    1DIPC   C1B28449  14.955   3.278   4.245 -0.1867  0.1261  0.0691
    1DIPC   D2B28450  14.981   3.308   4.664  0.1433  0.3826  0.0218
    1DIPC   D3B28451  15.145   3.784   4.660 -0.3298  0.0714 -0.0604
    1DIPC   C4B28452  14.960   4.056   4.904  0.4281  0.0467  0.1070
    1DIPC   NC328453   5.074   2.715   2.925 -0.1467  0.1603  0.1894
    1DIPC   PO428454   4.822   2.597   3.327 -0.0301  0.2344 -0.2318
    1DIPC   GL128455   4.862   2.385   3.682 -0.1165 -0.2460  0.2982
    1DIPC   GL228456   4.850   2.075   3.680 -0.3380  0.1481 -0.1505
    1DIPC   C1A28457   4.407   2.176   3.908  0.2448  0.0349 -0.1853
    1DIPC   D2A28458   4.075   2.049   4.072  0.0638 -0.2235 -0.3197
    1DIPC   D3A28459   4.400   2.119   4.407  0.0416  0.1960  0.3467
    1DIPC   C4A28460   4.667   1.812   4.717 -0.4881  0.3302 -0.0043
    1DIPC   C1B28461   4.695   1.834   4.079 -0.1138  0.6087  0.3238
    1DIPC   D2B28462   4.740   1.544   4.299 -0.1895 -0.1159  0.1127
    1DIPC   D3B28463   5.116   1.726   4.498  0.3941 -0.2740  0.2304
    1DIPC   C4B28464   5.111   1.767   5.004 -0.0270 -0.0484 -0.2144
    1DIPC   NC328465   4.137  28.288   3.128  0.1064  0.0788 -0.1247
    1DIPC   PO428466   4.130  27.987   3.355 -0.2349  0.0853 -0.1189
    1DIPC   GL128467   3.911  27.838   3.723 -0.3680  0.0691  0.3020
    1DIPC   GL228468   3.657  27.746   3.510 -0.1832  0.3041 -0.2132
    1DIPC   C1A28469   3.833  27.527   3.888 -0.0810 -0.1200  0.2868
    1DIPC   D2A28470   3.989  27.144   4.131  0.1562  0.0062 -0.2260
    1DIPC   D3A28471   3.736  26.767   4.234 -0.0972  0.1638 -0.0615
    1DIPC   C4A28472   3.889  26.645   4.735 -0.0824  0.2929  0.1931
    1DIPC   C1B28473   3.262  27.706   3.566  0.2630  0.1623 -0.1688
    1DIPC   D2B28474   3.056  27.383   3.714 -0.1630  0.1821 -0.0001
    1DIPC   D3B28475   3.011  27.228   4.179  0.2414 -0.1732 -0.0468
    1DIPC   C4B28476   3.293  27.363   4.540  0.0775 -0.5276  0.0490
    1DIPC   NC328477   2.605  24.844   2.131  0.0699 -0.0470 -0.2096
    1DIPC   PO428478   2.574  24.453   1.981 -0.1823  0.3904 -0.0451
    1DIPC   GL128479   2.674  24.254   2.349  0.0269  0.1452 -0.3371
    1DIPC   GL228480   2.962  24.095   2.321  0.2088 -0.1228  0.1478
    1DIPC   C1A28481   2.707  23.844   2.633  0.1880  0.0574  0.3576
    1DIPC   D2A28482   2.746  23.593   3.057 -0.1178  0.1290 -0.0597
    1DIPC   D3A28483   2.671  23.384   3.453 -0.4963  0.2262  0.4727
    1DIPC   C4A28484   2.294  23.218   3.496  0.1830  0.0338 -0.0171
    1DIPC   C1B28485   3.055  23.736   2.307  0.2466  0.0648 -0.1772
    1DIPC   D2B28486   3.106  23.493   2.709  0.1629 -0.0897 -0.0290
    1DIPC   D3B28487   3.473  23.586   2.965 -0.2082 -0.2012  0.3670
    1DIPC   C4B28488   3.774  23.342   2.911  0.0215 -0.1254  0.0879
    1DIPC   NC328489   5.950  20.910   1.682  0.2281  0.0406 -0.0428
    1DIPC   PO428490   6.033  20.931   2.068  0.0352 -0.1322  0.0605
    1DIPC   GL128491   5.956  20.914   2.421 -0.1414  0.2995 -0.2777
    1DIPC   GL228492   5.778  20.615   2.403  0.2386 -0.1537  0.0378
    1DIPC   C1A28493   5.768  21.018   2.781  0.0147 -0.0323  0.0531
    1DIPC   D2A28494   5.679  20.896   3.189 -0.3951 -0.2676  0.0140
    1DIPC   D3A28495   5.859  20.716   3.493 -0.2599  0.0486  0.0931
    1DIPC   C4A28496   5.743  20.625   3.914 -0.0940 -0.0101  0.1318
    1DIPC   C1B28497   5.636  20.449   2.886  0.0860 -0.1755 -0.0012
    1DIPC   D2B28498   5.463  20.226   3.090 -0.2875  0.0600  0.0629
    1DIPC   D3B28499   5.919  20.205   3.231  0.2088 -0.0817 -0.1341
    1DIPC   C4B28500   6.097  20.635   2.938 -0.2690 -0.1017  0.1304
    1DIPC   NC328501   2.109   2.799   3.382 -0.2265 -0.2808  0.1540
    1DIPC   PO428502   1.909   3.191   3.408 -0.1719  0.0189  0.1313
    1DIPC   GL128503   1.738   3.060   3.773 -0.1848 -0.3365 -0.2995
    1DIPC   GL228504   1.968   2.914   3.928 -0.1535 -0.1424  0.2103
    1DIPC   C1A28505   1.500   2.979   4.134 -0.4314  0.1359  0.2642
    1DIPC   D2A28506   1.694   3.106   4.427  0.0949  0.0317  0.0016
    1DIPC   D3A28507   1.853   3.184   4.803 -0.1600  0.0669  0.0353
    1DIPC   C4A28508   1.631   2.931   5.154 -0.0954  0.0181  0.1138
    1DIPC   C1B28509   1.845   2.597   4.001 -0.1069 -0.0907 -0.1528
    1DIPC   D2B28510   2.006   2.241   3.839  0.2863 -0.0854 -0.2550
    1DIPC   D3B28511   1.597   2.090   3.789 -0.3573 -0.1872 -0.1324
    1DIPC   C4B28512   1.553   1.690   3.798 -0.1710 -0.2067  0.2701
    1DIPC   NC328513   2.557  12.700   2.551  0.1030 -0.3568 -0.0699
    1DIPC   PO428514   2.865  13.068   2.592 -0.3667 -0.2322  0.0411
    1DIPC   GL128515   2.893  13.034   3.039  0.0606  0.0555 -0.0159
    1DIPC   GL228516   2.837  13.324   3.285  0.1951 -0.0634 -0.3162
    1DIPC   C1A28517   2.728  12.783   3.347 -0.2289 -0.1445 -0.0044
    1DIPC   D2A28518   2.318  12.738   3.547  0.0641 -0.1234 -0.2501
    1DIPC   D3A28519   2.455  13.163   3.589 -0.2185 -0.2102  0.0268
    1DIPC   C4A28520   2.089  13.507   3.713 -0.1879  0.1445  0.2996
    1DIPC   C1B28521   2.974  13.485   3.702 -0.0108 -0.1332  0.1039
    1DIPC   D2B28522   3.010  13.652   4.125  0.0635  0.0596  0.1605
    1DIPC   D3B28523   3.416  13.721   4.227 -0.0392 -0.1138 -0.1463
    1DIPC   C4B28524   3.676  13.838   4.557 -0.0274 -0.0251  0.0670
    1DIPC   NC328525  25.922  15.982   2.361 -0.0707 -0.0638  0.0813
    1DIPC   PO428526  26.176  15.547   2.387  0.2751 -0.0441  0.0928
    1DIPC   GL128527  26.259  15.769   2.728  0.0078  0.0967 -0.1357
    1DIPC   GL228528  25.955  15.846   2.863 -0.0130  0.0072 -0.0055
    1DIPC   C1A28529  26.241  15.741   3.197  0.0618  0.1496  0.1275
    1DIPC   D2A28530  26.323  15.640   3.719  0.0213  0.1798  0.0861
    1DIPC   D3A28531  25.903  15.568   3.655 -0.0632 -0.0787  0.1627
    1DIPC   C4A28532  25.734  15.586   3.265  0.1016 -0.3115  0.0394
    1DIPC   C1B28533  26.167  16.228   3.030  0.1082 -0.0244  0.0569
    1DIPC   D2B28534  26.293  16.362   3.397 -0.1152 -0.1504 -0.0004
    1DIPC   D3B28535  26.530  16.346   3.731 -0.1914 -0.1215  0.0946
    1DIPC   C4B28536  26.581  16.803   3.865 -0.1237  0.2727  0.1637
    1DIPC   NC328537  24.856  22.065   3.015 -0.1030  0.0454 -0.2823
    1DIPC   PO428538  24.556  21.771   3.086  0.0001  0.2813  0.1362
    1DIPC   GL128539  24.200  21.717   3.399  0.2387  0.2398 -0.4371
    1DIPC   GL228540  24.288  21.369   3.289  0.1047 -0.0602  0.3017
    1DIPC   C1A28541  24.238  21.596   3.846  0.4627  0.1719  0.3450
    1DIPC   D2A28542  24.161  21.497   4.261 -0.1970 -0.0528  0.0421
    1DIPC   D3A28543  23.910  21.117   4.302  0.3037  0.1245 -0.0627
    1DIPC   C4A28544  24.024  20.869   4.619  0.2857  0.2820  0.1076
    1DIPC   C1B28545  24.233  20.920   3.321 -0.1897  0.0545  0.1066
    1DIPC   D2B28546  23.974  20.717   3.565  0.1236 -0.0537 -0.2268
    1DIPC   D3B28547  24.145  21.062   3.885  0.0332  0.1132 -0.0250
    1DIPC   C4B28548  24.581  21.115   4.171  0.0534  0.0204  0.2622
    1DIPC   NC328549  26.031  20.577   2.416 -0.1682  0.0842  0.0156
    1DIPC   PO428550  25.877  20.777   2.801  0.2341  0.1728  0.0831
    1DIPC   GL128551  25.740  20.946   3.236 -0.0994 -0.1746  0.0787
    1DIPC   GL228552  25.872  21.272   3.406  0.1894 -0.1328 -0.0359
    1DIPC   C1A28553  25.953  20.815   3.588  0.2430 -0.0464 -0.2366
    1DIPC   D2A28554  26.384  20.682   3.840 -0.1459 -0.1876  0.1508
    1DIPC   D3A28555  26.295  20.725   4.311  0.1011 -0.1368  0.0649
    1DIPC   C4A28556  25.956  20.651   4.457 -0.0999 -0.1502 -0.1117
    1DIPC   C1B28557  25.701  21.264   3.876  0.2770 -0.0325  0.1807
    1DIPC   D2B28558  25.934  21.118   4.162 -0.1977  0.1145  0.0267
    1DIPC   D3B28559  25.753  21.468   4.405 -0.1284 -0.0903  0.1061
    1DIPC   C4B28560  25.962  21.641   4.734  0.1817 -0.1044  0.3466
    1DIPC   NC328561  21.300  29.665   3.254  0.0169  0.1083  0.0923
    1DIPC   PO428562  20.941  29.884   3.267 -0.1440 -0.0717  0.1556
    1DIPC   GL128563  20.699  30.082   3.581  0.2803  0.0815  0.0527
    1DIPC   GL228564  20.423  30.095   3.748  0.0183 -0.0665 -0.2981
    1DIPC   C1A28565  20.789  30.170   4.085  0.2508  0.3050  0.0933
    1DIPC   D2A28566  21.236  30.304   4.210  0.2124 -0.2711 -0.2399
    1DIPC   D3A28567  21.345  30.712   4.486  0.1243 -0.1217 -0.1307
    1DIPC   C4A28568  20.977  30.999   4.486  0.0668  0.2148 -0.2120
    1DIPC   C1B28569  19.961  30.064   3.911 -0.0201  0.0693  0.2371
    1DIPC   D2B28570  19.957  29.831   4.280 -0.1189 -0.2017 -0.4260
    1DIPC   D3B28571  20.138  29.452   4.243  0.1062  0.1026  0.0813
    1DIPC   C4B28572  20.375  29.311   4.470  0.0659 -0.2194  0.0056
    1DIPC   NC328573  24.447  13.955   2.124 -0.0011  0.3645 -0.3397
    1DIPC   PO428574  24.193  13.573   2.033  0.0819 -0.1639 -0.1107
    1DIPC   GL128575  24.112  13.661   2.577 -0.2156 -0.0167  0.0418
    1DIPC   GL228576  24.301  13.932   2.594 -0.0627 -0.1192 -0.1084
    1DIPC   C1A28577  24.142  13.530   2.989 -0.0657  0.0884  0.1752
    1DIPC   D2A28578  24.339  13.215   3.254  0.1487  0.0649 -0.0386
    1DIPC   D3A28579  23.969  13.497   3.480 -0.0590 -0.0940 -0.3290
    1DIPC   C4A28580  23.694  13.662   3.318 -0.4356 -0.2103  0.0599
    1DIPC   C1B28581  24.120  14.036   3.033  0.0329  0.1483  0.1899
    1DIPC   D2B28582  23.810  14.273   3.158 -0.0871  0.0918 -0.1453
    1DIPC   D3B28583  23.773  14.147   3.687 -0.1446  0.1499  0.0442
    1DIPC   C4B28584  23.886  13.787   4.033 -0.2923  0.2110  0.1839
    1DIPC   NC328585   8.179  29.336   3.094  0.1640 -0.2736 -0.1640
    1DIPC   PO428586   7.956  29.035   3.378 -0.3132  0.1357  0.3882
    1DIPC   GL128587   7.885  28.960   3.784 -0.0199  0.1132 -0.0333
    1DIPC   GL228588   7.658  28.865   3.983  0.3549 -0.0430 -0.1155
    1DIPC   C1A28589   8.074  29.268   3.980  0.2663 -0.1114 -0.1165
    1DIPC   D2A28590   8.135  29.308   4.523  0.1929 -0.2598 -0.1436
    1DIPC   D3A28591   8.078  28.979   4.737 -0.1016 -0.0162 -0.1441
    1DIPC   C4A28592   8.131  28.811   5.168  0.1475  0.1115  0.0777
    1DIPC   C1B28593   7.780  28.813   4.421 -0.1227 -0.1471 -0.0238
    1DIPC   D2B28594   7.732  28.607   4.858 -0.0138  0.0508  0.0236
    1DIPC   D3B28595   7.750  28.221   4.944 -0.0367 -0.2305 -0.1017
    1DIPC   C4B28596   7.485  27.997   5.156 -0.0120 -0.1447  0.0791
    1DIPC   NC328597  18.770  25.009   3.028  0.1911 -0.1782  0.0203
    1DIPC   PO428598  18.784  24.695   3.291  0.4030 -0.2171 -0.0199
    1DIPC   GL128599  18.827  24.548   3.697  0.1301 -0.0413  0.0485
    1DIPC   GL228600  18.809  24.736   3.861 -0.1213 -0.1059 -0.1696
    1DIPC   C1A28601  18.753  24.142   3.813  0.1542  0.0078  0.0090
    1DIPC   D2A28602  18.739  23.739   4.011 -0.2160 -0.1412 -0.3383
    1DIPC   D3A28603  19.146  23.575   4.048  0.2034 -0.0898 -0.3906
    1DIPC   C4A28604  19.349  23.462   4.424  0.3979 -0.2507 -0.1043
    1DIPC   C1B28605  18.782  24.529   4.190 -0.0446 -0.1910  0.0567
    1DIPC   D2B28606  18.833  24.608   4.614 -0.3165 -0.1008 -0.2173
    1DIPC   D3B28607  18.669  25.015   4.657 -0.0264  0.1072  0.1627
    1DIPC   C4B28608  18.686  25.411   4.451 -0.0860 -0.0290  0.0651
    1DIPC   NC328609  20.574   1.841   2.673 -0.0604 -0.0052  0.2401
    1DIPC   PO428610  20.889   2.154   2.936  0.3057 -0.1964  0.5072
    1DIPC   GL128611  20.913   2.147   3.443 -0.0910 -0.0483 -0.2011
    1DIPC   GL228612  21.239   1.989   3.637 -0.1047  0.0661  0.2694
    1DIPC   C1A28613  20.831   2.469   3.711  0.1492 -0.1366 -0.0081
    1DIPC   D2A28614  20.543   2.585   4.046 -0.1400 -0.0032  0.1773
    1DIPC   D3A28615  20.784   2.892   4.301  0.0841  0.1947 -0.1952
    1DIPC   C4A28616  20.790   3.295   4.292  0.0240 -0.2021  0.1275
    1DIPC   C1B28617  21.052   1.960   3.939  0.1182 -0.1367  0.0076
    1DIPC   D2B28618  21.047   2.047   4.269 -0.0627  0.1533 -0.0915
    1DIPC   D3B28619  21.107   2.397   4.093 -0.0312 -0.0884 -0.1328
    1DIPC   C4B28620  21.397   2.541   3.778  0.0209  0.3030  0.1069
    1DIPC   NC328621  13.221   4.939   3.264  0.0258 -0.1734 -0.0343
    1DIPC   PO428622  13.597   4.910   3.235  0.1066 -0.2487  0.0732
    1DIPC   GL128623  13.644   4.615   3.635 -0.2490 -0.1589 -0.1870
    1DIPC   GL228624  13.995   4.448   3.550  0.0482 -0.0262  0.2019
    1DIPC   C1A28625  13.545   4.666   4.149 -0.1413 -0.0385 -0.2245
    1DIPC   D2A28626  13.566   5.036   4.464 -0.1324  0.2000 -0.2257
    1DIPC   D3A28627  13.909   4.817   4.596 -0.1847  0.0020 -0.1766
    1DIPC   C4A28628  14.142   4.952   4.992  0.2011 -0.1100 -0.1098
    1DIPC   C1B28629  14.096   4.949   3.700 -0.0392 -0.0596  0.0283
    1DIPC   D2B28630  14.329   5.178   4.041 -0.1709  0.1556  0.1598
    1DIPC   D3B28631  14.297   5.175   4.497 -0.1552 -0.0657  0.2138
    1DIPC   C4B28632  13.983   5.395   4.785 -0.3254 -0.0215  0.1352
    1DIPC   NC328633  20.728   4.147   2.947 -0.0028 -0.4165 -0.0662
    1DIPC   PO428634  21.014   3.875   3.070 -0.2687  0.1377 -0.3337
    1DIPC   GL128635  21.110   4.221   3.285 -0.0413 -0.0122 -0.0888
    1DIPC   GL228636  20.792   4.296   3.391  0.0572  0.2519 -0.3392
    1DIPC   C1A28637  21.162   4.430   3.694 -0.1320  0.0329  0.2151
    1DIPC   D2A28638  21.293   4.563   4.041 -0.1971  0.3569  0.2132
    1DIPC   D3A28639  21.153   4.181   4.297 -0.3599  0.3132 -0.1229
    1DIPC   C4A28640  20.983   4.225   4.721 -0.1292 -0.0678  0.2741
    1DIPC   C1B28641  20.725   4.313   3.915  0.2646 -0.2172 -0.2079
    1DIPC   D2B28642  20.788   4.509   4.261 -0.1645  0.2753  0.1048
    1DIPC   D3B28643  20.501   4.787   4.160  0.2700  0.1998  0.0121
    1DIPC   C4B28644  19.990   4.790   4.269 -0.0885  0.0493 -0.3256
    1DIPC   NC328645  18.690  25.262   3.474 -0.0801 -0.1667 -0.1369
    1DIPC   PO428646  18.285  25.124   3.189 -0.2348  0.0280 -0.2516
    1DIPC   GL128647  18.114  25.251   3.457  0.1946 -0.0997  0.0230
    1DIPC   GL228648  18.339  25.340   3.747  0.1542  0.2663 -0.1354
    1DIPC   C1A28649  17.815  25.305   3.835 -0.0044 -0.3626  0.3951
    1DIPC   D2A28650  17.562  25.098   4.110 -0.0688 -0.0561  0.2220
    1DIPC   D3A28651  17.252  25.128   4.477 -0.0373 -0.1589  0.1386
    1DIPC   C4A28652  17.348  25.034   4.905  0.0073 -0.2441  0.2035
    1DIPC   C1B28653  18.138  25.438   4.200  0.3180 -0.1521  0.1663
    1DIPC   D2B28654  17.957  25.805   4.550  0.1998 -0.0460 -0.2004
    1DIPC   D3B28655  18.185  25.487   4.740 -0.0587 -0.0794  0.1327
    1DIPC   C4B28656  18.318  25.561   5.190 -0.1222  0.6888 -0.0937
    1DIPC   NC328657  18.246   0.820   2.929  0.1269  0.1869 -0.0233
    1DIPC   PO428658  17.999   0.727   3.282  0.0073 -0.0171 -0.1529
    1DIPC   GL128659  17.773   1.087   3.552  0.0149  0.0015  0.1344
    1DIPC   GL228660  17.437   1.054   3.698 -0.3296  0.4177 -0.1137
    1DIPC   C1A28661  17.769   1.397   3.962  0.1656  0.2392 -0.2478
    1DIPC   D2A28662  18.002   1.586   4.240 -0.3055  0.0903 -0.1506
    1DIPC   D3A28663  18.492   1.409   4.239  0.0701 -0.3384  0.0855
    1DIPC   C4A28664  18.635   1.518   3.837 -0.2074 -0.0522 -0.0593
    1DIPC   C1B28665  17.379   0.710   3.812 -0.3594 -0.1298  0.0542
    1DIPC   D2B28666  17.269   0.271   3.651 -0.0496  0.0807  0.0222
    1DIPC   D3B28667  17.368  -0.128   3.826  0.3711 -0.1462 -0.1115
    1DIPC   C4B28668  17.724  -0.292   4.028 -0.2542  0.0943 -0.2312
    1DIPC   NC328669  19.786  26.981   2.953  0.1057 -0.1199  0.2646
    1DIPC   PO428670  19.631  27.330   3.340  0.0824  0.1270  0.0988
    1DIPC   GL128671  19.613  27.335   3.749 -0.3005 -0.0995 -0.0536
    1DIPC   GL228672  19.934  27.467   3.864 -0.2375  0.1289  0.0284
    1DIPC   C1A28673  19.622  27.270   4.159 -0.0331 -0.1196 -0.1140
    1DIPC   D2A28674  19.703  27.566   4.442 -0.1607 -0.0006  0.0047
    1DIPC   D3A28675  19.852  27.282   4.668  0.0436 -0.1146  0.3549
    1DIPC   C4A28676  19.915  27.338   5.177  0.2261  0.0752 -0.1280
    1DIPC   C1B28677  20.123  27.119   4.172  0.1305  0.0146 -0.0877
    1DIPC   D2B28678  20.241  26.981   4.568  0.0937 -0.4077  0.0032
    1DIPC   D3B28679  20.604  26.989   4.597 -0.2309  0.1937 -0.0496
    1DIPC   C4B28680  20.831  26.763   4.968 -0.0321  0.1033  0.0004
    1DIPC   NC328681   9.285  21.840   2.112 -0.0988  0.2467 -0.2123
    1DIPC   PO428682   9.695  21.782   2.275  0.1671  0.0741 -0.0834
    1DIPC   GL128683   9.519  21.633   2.697  0.3019  0.1217 -0.1424
    1DIPC   GL228684   9.114  21.719   2.627 -0.1394  0.0687  0.1775
    1DIPC   C1A28685   9.609  21.718   3.156 -0.0255  0.1158 -0.1150
    1DIPC   D2A28686   9.809  21.994   3.520 -0.0095  0.0131 -0.1984
    1DIPC   D3A28687   9.376  22.141   3.500 -0.2987  0.1603  0.0427
    1DIPC   C4A28688   9.095  22.193   3.867 -0.1261 -0.1200  0.1823
    1DIPC   C1B28689   9.210  21.485   3.088 -0.0787  0.0606 -0.0283
    1DIPC   D2B28690   9.341  21.572   3.570 -0.0906 -0.2156  0.1884
    1DIPC   D3B28691   9.629  21.733   3.892  0.1630 -0.0065  0.1991
    1DIPC   C4B28692   9.676  21.789   4.305  0.1893  0.2553 -0.0467
    1DIPC   NC328693   0.033  25.295   2.096  0.2682 -0.2795  0.0256
    1DIPC   PO428694  -0.327  24.970   2.265  0.1060 -0.0018  0.0161
    1DIPC   GL128695  -0.413  25.047   2.781 -0.3146  0.0237 -0.1239
    1DIPC   GL228696  -0.446  24.763   3.012 -0.1419 -0.1207 -0.2146
    1DIPC   C1A28697  -0.234  25.184   3.206 -0.2498  0.0260  0.0815
    1DIPC   D2A28698   0.072  25.525   3.236  0.2462 -0.2126  0.1992
    1DIPC   D3A28699   0.400  25.176   3.295  0.0815 -0.2511  0.0300
    1DIPC   C4A28700   0.497  24.965   3.649 -0.1503  0.0964 -0.2277
    1DIPC   C1B28701  -0.582  24.259   3.175  0.3053 -0.0911  0.1291
    1DIPC   D2B28702  -0.562  23.935   3.561 -0.1830  0.1181  0.0779
    1DIPC   D3B28703  -0.139  23.710   3.539  0.1351  0.1633  0.2663
    1DIPC   C4B28704   0.097  23.676   3.968  0.0735  0.1407  0.1625
    1DIPC   NC328705  24.088   2.518   3.007 -0.4675  0.1397 -0.0957
    1DIPC   PO428706  24.298   2.663   3.400  0.2607  0.1856  0.0235
    1DIPC   GL128707  24.434   3.000   3.680  0.2369  0.0590 -0.2597
    1DIPC   GL228708  24.233   3.317   3.655 -0.0190  0.0369 -0.2067
    1DIPC   C1A28709  24.666   3.224   4.022  0.0835  0.1603 -0.5642
    1DIPC   D2A28710  24.774   3.519   4.221  0.0443 -0.0173  0.0183
    1DIPC   D3A28711  24.749   3.642   4.645 -0.1240 -0.1191 -0.1559
    1DIPC   C4A28712  25.097   3.534   4.943  0.2915 -0.0092 -0.2463
    1DIPC   C1B28713  24.168   3.468   4.048 -0.2073 -0.5292 -0.0108
    1DIPC   D2B28714  24.304   3.442   4.480  0.0028 -0.4974 -0.0430
    1DIPC   D3B28715  24.138   3.028   4.654  0.2178 -0.1698 -0.1854
    1DIPC   C4B28716  24.082   2.653   4.907 -0.0902 -0.1455 -0.0210
    1DIPC   NC328717   9.617  19.335   2.013 -0.1359 -0.0320  0.2728
    1DIPC   PO428718   9.126  19.313   2.069  0.1447  0.0140  0.1831
    1DIPC   GL128719   9.046  19.522   2.482 -0.1816  0.2133  0.1498
    1DIPC   GL228720   8.984  19.821   2.390  0.1944  0.1013 -0.0100
    1DIPC   C1A28721   9.159  19.558   2.901  0.1066  0.0660  0.0742
    1DIPC   D2A28722   9.498  19.781   3.137 -0.1603 -0.0479  0.2218
    1DIPC   D3A28723   9.802  19.493   3.198 -0.0353  0.0509 -0.0418
    1DIPC   C4A28724   9.655  19.140   3.496  0.0110 -0.2447 -0.0226
    1DIPC   C1B28725   9.249  20.180   2.629  0.0741  0.0383  0.2182
    1DIPC   D2B28726   9.165  20.581   2.818 -0.0948 -0.0804 -0.1107
    1DIPC   D3B28727   9.335  20.298   3.142  0.0776 -0.1799 -0.1709
    1DIPC   C4B28728   9.452  20.455   3.511 -0.1638  0.1008 -0.0191
    1DIPC   NC328729  24.583   5.718   3.325  0.0002 -0.1414 -0.1171
    1DIPC   PO428730  24.347   6.023   3.298  0.2308 -0.3560 -0.0212
    1DIPC   GL128731  24.308   5.780   3.751 -0.0544  0.0613 -0.1069
    1DIPC   GL228732  24.471   5.931   4.043  0.0934  0.1175 -0.0216
    1DIPC   C1A28733  24.002   5.714   4.055 -0.0448 -0.2616 -0.1306
    1DIPC   D2A28734  23.723   5.574   4.418 -0.0343 -0.0067  0.0484
    1DIPC   D3A28735  23.699   5.162   4.519  0.1594 -0.0428 -0.0635
    1DIPC   C4A28736  23.379   4.974   4.251  0.0189 -0.0441 -0.0724
    1DIPC   C1B28737  24.116   6.122   4.370  0.1790  0.1632  0.0138
    1DIPC   D2B28738  23.773   6.264   4.635  0.1781  0.0500 -0.3609
    1DIPC   D3B28739  23.934   5.887   4.807 -0.4503  0.2660 -0.2919
    1DIPC   C4B28740  24.275   5.667   4.545 -0.1562 -0.2469  0.2517
    1DIPC   NC328741  20.944   7.116   1.854  0.0515  0.1909  0.2110
    1DIPC   PO428742  21.213   7.347   2.104  0.2639  0.2304  0.1820
    1DIPC   GL128743  21.201   7.448   2.562  0.2936 -0.1172 -0.3016
    1DIPC   GL228744  20.968   7.765   2.703 -0.0273 -0.0039  0.0018
    1DIPC   C1A28745  21.055   7.319   3.098  0.1129 -0.1072 -0.1972
    1DIPC   D2A28746  21.126   7.205   3.474  0.3436 -0.2164  0.0169
    1DIPC   D3A28747  21.098   7.289   3.890 -0.1394 -0.2014  0.1455
    1DIPC   C4A28748  20.806   7.425   4.215 -0.2760  0.3587 -0.1530
    1DIPC   C1B28749  20.810   7.738   3.068  0.0529  0.1040  0.2551
    1DIPC   D2B28750  20.619   7.942   3.427  0.2725 -0.0709  0.1315
    1DIPC   D3B28751  20.645   8.006   3.841  0.1847  0.3131  0.3048
    1DIPC   C4B28752  20.431   7.737   4.078  0.0458  0.1368  0.2329
    1DIPC   NC328753  24.373  11.880   2.286  0.0586  0.1247  0.1016
    1DIPC   PO428754  24.375  11.525   2.528  0.0359  0.1272 -0.0355
    1DIPC   GL128755  24.332  11.480   2.985  0.1886  0.4120  0.0500
    1DIPC   GL228756  23.973  11.452   2.981 -0.2920  0.0576 -0.0130
    1DIPC   C1A28757  24.419  11.317   3.455 -0.0057  0.0846 -0.0998
    1DIPC   D2A28758  24.178  11.323   3.878 -0.2243  0.2757 -0.2390
    1DIPC   D3A28759  24.080  11.101   4.212 -0.2523  0.1479 -0.1405
    1DIPC   C4A28760  23.713  10.740   4.276  0.0130  0.3732  0.1832
    1DIPC   C1B28761  23.914  11.631   3.465 -0.2496 -0.1123 -0.1284
    1DIPC   D2B28762  23.959  11.771   3.717 -0.2393  0.2555 -0.0414
    1DIPC   D3B28763  23.768  11.899   3.969 -0.1771  0.1852  0.1133
    1DIPC   C4B28764  23.439  11.667   4.301  0.1752  0.1909  0.0892
    1DIPC   NC328765  23.782  27.164   2.229 -0.2566  0.0924  0.0417
    1DIPC   PO428766  24.051  27.329   2.547 -0.0862 -0.0496  0.2066
    1DIPC   GL128767  23.980  27.257   3.009  0.1450 -0.0700  0.1046
    1DIPC   GL228768  24.225  27.434   3.262 -0.2308 -0.0037  0.0759
    1DIPC   C1A28769  24.073  26.924   3.249 -0.0842 -0.0218 -0.2593
    1DIPC   D2A28770  24.161  26.661   3.491  0.5094 -0.1211  0.0197
    1DIPC   D3A28771  23.867  26.693   3.855  0.0265  0.1014  0.0247
    1DIPC   C4A28772  23.443  26.584   3.910  0.0414  0.1485  0.1264
    1DIPC   C1B28773  24.394  27.227   3.559 -0.0043  0.1738  0.0209
    1DIPC   D2B28774  24.482  27.584   3.816 -0.2900 -0.0287  0.0220
    1DIPC   D3B28775  24.138  27.624   3.902 -0.0664 -0.0945 -0.1167
    1DIPC   C4B28776  24.262  27.585   4.314  0.1536 -0.0236  0.0560
    1DIPC   NC328777   6.272  28.583   2.734 -0.0546  0.0638 -0.1163
    1DIPC   PO428778   6.200  28.886   3.012 -0.0765 -0.0460  0.0018
    1DIPC   GL128779   6.260  28.777   3.502 -0.0546  0.0644 -0.1397
    1DIPC   GL228780   6.341  28.531   3.698  0.1585 -0.1922 -0.2876
    1DIPC   C1A28781   6.248  28.995   3.845  0.2295  0.0397  0.1151
    1DIPC   D2A28782   5.901  29.246   3.912  0.0277 -0.0745  0.1847
    1DIPC   D3A28783   6.259  29.349   4.202 -0.0220  0.0873 -0.0857
    1DIPC   C4A28784   6.218  29.715   4.316 -0.1407 -0.2097 -0.1477
    1DIPC   C1B28785   6.646  28.728   3.930 -0.0741 -0.1513 -0.0489
    1DIPC   D2B28786   6.882  28.694   4.306  0.0613  0.2079 -0.0008
    1DIPC   D3B28787   6.846  28.586   4.653  0.1491  0.0705  0.1469
    1DIPC   C4B28788   6.433  28.478   4.800 -0.1092  0.3079  0.3194
    1DIPC   NC328789  13.864  26.603   3.180  0.1300 -0.6320  0.1863
    1DIPC   PO428790  14.027  26.243   2.923  0.0237 -0.0268 -0.1560
    1DIPC   GL128791  13.821  26.159   3.448  0.0818 -0.0922 -0.0250
    1DIPC   GL228792  13.562  25.958   3.410 -0.1095  0.0227 -0.1157
    1DIPC   C1A28793  13.738  25.954   3.933 -0.2549  0.0625  0.0003
    1DIPC   D2A28794  13.334  25.748   4.214  0.0717 -0.1154  0.2242
    1DIPC   D3A28795  13.759  25.766   4.426 -0.0720 -0.1400 -0.2634
    1DIPC   C4A28796  14.072  26.042   4.311 -0.1909  0.4566 -0.0378
    1DIPC   C1B28797  13.295  25.849   3.733  0.2422  0.0288 -0.3142
    1DIPC   D2B28798  13.067  25.402   3.761  0.0593  0.1236 -0.0096
    1DIPC   D3B28799  12.995  25.329   4.190 -0.2228  0.1633  0.3076
    1DIPC   C4B28800  12.975  25.581   4.571 -0.1271 -0.2210 -0.0452
    1DIPC   NC328801  12.679   1.237   3.711 -0.0953  0.0938  0.0582
    1DIPC   PO428802  12.851   0.986   3.401 -0.1836 -0.0897 -0.1897
    1DIPC   GL128803  12.962   0.708   3.708  0.2047 -0.1586  0.3501
    1DIPC   GL228804  13.223   0.756   3.804 -0.2408 -0.1764  0.2200
    1DIPC   C1A28805  12.682   0.425   3.962 -0.0518 -0.0284 -0.0605
    1DIPC   D2A28806  12.316   0.344   4.070 -0.0118 -0.0266  0.1326
    1DIPC   D3A28807  12.343   0.116   4.485  0.0784  0.2285 -0.1102
    1DIPC   C4A28808  12.564  -0.280   4.648  0.0754 -0.0188 -0.0783
    1DIPC   C1B28809  13.075   0.531   4.210  0.0646  0.2824 -0.2157
    1DIPC   D2B28810  12.914   0.139   4.299  0.0010  0.0757  0.0130
    1DIPC   D3B28811  12.975  -0.117   3.941  0.1417 -0.0383  0.0482
    1DIPC   C4B28812  12.506  -0.320   4.080  0.0051  0.2219  0.1257
    1DIPC   NC328813  25.436  11.288   2.531  0.0968  0.0702 -0.1008
    1DIPC   PO428814  25.746  11.651   2.424 -0.5015  0.2242  0.0679
    1DIPC   GL128815  25.790  11.794   2.778  0.0339  0.0782  0.0615
    1DIPC   GL228816  25.489  11.909   2.828  0.0213 -0.1132  0.1297
    1DIPC   C1A28817  25.994  11.824   3.199  0.0261  0.2117 -0.0206
    1DIPC   D2A28818  25.748  11.669   3.560 -0.1221  0.2116 -0.1199
    1DIPC   D3A28819  25.650  12.025   3.942 -0.0218  0.1746  0.0403
    1DIPC   C4A28820  25.282  12.060   4.107  0.2144  0.0739  0.0401
    1DIPC   C1B28821  25.349  11.969   3.286  0.1761 -0.1274 -0.0376
    1DIPC   D2B28822  24.965  11.773   3.634  0.0242 -0.3432 -0.0228
    1DIPC   D3B28823  25.230  11.477   3.984 -0.1743  0.1641  0.0346
    1DIPC   C4B28824  25.145  11.033   3.995  0.0660  0.0307  0.4138
    1DIPC   NC328825   4.546  15.961   1.807 -0.3042  0.1528 -0.5799
    1DIPC   PO428826   4.772  15.936   2.190  0.2445 -0.0962 -0.1069
    1DIPC   GL128827   4.706  16.241   2.506 -0.0378  0.1289  0.1136
    1DIPC   GL228828   4.882  16.067   2.773  0.3229  0.2087 -0.0033
    1DIPC   C1A28829   4.670  16.560   2.866 -0.1829 -0.1530  0.0714
    1DIPC   D2A28830   4.516  16.540   3.362 -0.1384 -0.2484  0.0685
    1DIPC   D3A28831   4.746  16.471   3.691 -0.1608 -0.1380  0.0208
    1DIPC   C4A28832   5.242  16.485   3.796  0.1879  0.0794  0.2423
    1DIPC   C1B28833   4.911  16.195   3.136 -0.1570  0.0919  0.0087
    1DIPC   D2B28834   5.324  16.167   3.361 -0.2920  0.0345  0.2146
    1DIPC   D3B28835   5.499  15.761   3.687 -0.2058 -0.3756 -0.1515
    1DIPC   C4B28836   5.898  16.018   3.997  0.1203  0.0715 -0.0756
    1DIPC   NC328837  19.244   9.897   2.360  0.2157 -0.1095 -0.1442
    1DIPC   PO428838  18.854   9.636   2.250  0.0760  0.1807 -0.2330
    1DIPC   GL128839  18.781   9.727   2.642  0.1959 -0.1901 -0.1049
    1DIPC   GL228840  18.471   9.709   2.621  0.1787 -0.2235 -0.0233
    1DIPC   C1A28841  19.014   9.871   3.022  0.0873  0.0807  0.0646
    1DIPC   D2A28842  19.417   9.996   3.298  0.0999 -0.1003 -0.1843
    1DIPC   D3A28843  19.752  10.081   3.081  0.1994 -0.0895 -0.2348
    1DIPC   C4A28844  20.129  10.101   3.354 -0.3607 -0.5128 -0.0825
    1DIPC   C1B28845  18.515   9.573   3.040 -0.1760  0.1873  0.1221
    1DIPC   D2B28846  18.344   9.614   3.509  0.1617 -0.1298  0.2004
    1DIPC   D3B28847  18.365   9.841   3.764 -0.0542  0.0261 -0.1491
    1DIPC   C4B28848  18.357   9.666   4.146 -0.0537  0.0086  0.0262
    1DIPC   NC328849  24.592  28.450   3.316  0.0419 -0.0558 -0.2109
    1DIPC   PO428850  24.205  28.488   3.281  0.0118 -0.1082 -0.0168
    1DIPC   GL128851  24.300  28.434   3.738 -0.2077 -0.2756  0.0771
    1DIPC   GL228852  24.069  28.454   3.797  0.3748 -0.2579 -0.2672
    1DIPC   C1A28853  24.420  28.116   4.037  0.4296  0.0490 -0.1312
    1DIPC   D2A28854  24.843  27.825   4.059 -0.0133  0.0811  0.2628
    1DIPC   D3A28855  25.328  27.619   4.042 -0.2648  0.0566 -0.1086
    1DIPC   C4A28856  25.333  27.206   4.018  0.0261 -0.1099  0.0229
    1DIPC   C1B28857  24.096  28.432   4.284 -0.1300  0.0179  0.0500
    1DIPC   D2B28858  24.223  28.631   4.707 -0.0544 -0.1359 -0.0313
    1DIPC   D3B28859  23.915  28.546   4.926 -0.0782 -0.0322 -0.3138
    1DIPC   C4B28860  23.730  28.864   5.214 -0.2228 -0.2873  0.1524
    1DIPC   NC328861  23.386  29.794   2.681  0.0803  0.0617  0.5699
    1DIPC   PO428862  23.290  29.706   3.176  0.1891  0.1690  0.1758
    1DIPC   GL128863  23.006  29.586   3.480 -0.1563  0.1933  0.0679
    1DIPC   GL228864  22.977  29.341   3.581 -0.0308  0.0381  0.1835
    1DIPC   C1A28865  22.951  29.742   3.901  0.0808 -0.1877  0.0271
    1DIPC   D2A28866  22.646  29.839   4.225  0.1168  0.1136  0.1343
    1DIPC   D3A28867  22.594  30.210   4.476  0.2414  0.1929 -0.0505
    1DIPC   C4A28868  23.008  30.264   4.725  0.1254  0.1705  0.2676
    1DIPC   C1B28869  23.321  29.455   3.865 -0.0560 -0.1238 -0.1397
    1DIPC   D2B28870  23.402  29.383   4.352  0.1629  0.2381  0.0655
    1DIPC   D3B28871  23.798  29.466   4.548  0.1718  0.2778 -0.1025
    1DIPC   C4B28872  23.944  29.852   4.385 -0.1289 -0.1526 -0.2552
    1DIPC   NC328873   7.453  27.745   2.329 -0.1353  0.2908  0.0260
    1DIPC   PO428874   7.667  27.454   2.510 -0.1660 -0.1595  0.3185
    1DIPC   GL128875   7.652  27.584   2.940 -0.2534  0.0233 -0.0653
    1DIPC   GL228876   7.483  27.797   3.088  0.1103 -0.0454 -0.1652
    1DIPC   C1A28877   7.935  27.297   3.219 -0.1240 -0.1426 -0.1389
    1DIPC   D2A28878   8.237  27.390   3.614 -0.1267 -0.0951  0.0469
    1DIPC   D3A28879   8.141  27.580   3.968 -0.4543  0.0738  0.1584
    1DIPC   C4A28880   7.926  27.520   4.256 -0.1646 -0.3189 -0.2373
    1DIPC   C1B28881   7.401  27.861   3.538 -0.0942 -0.0691  0.0703
    1DIPC   D2B28882   7.113  27.768   3.943  0.3671  0.3016 -0.0434
    1DIPC   D3B28883   6.699  27.806   4.141 -0.2309 -0.1737  0.1920
    1DIPC   C4B28884   6.578  27.515   4.467 -0.2064 -0.0089  0.0659
    1DIPC   NC328885   5.387  18.367   1.730 -0.2557  0.3029  0.1267
    1DIPC   PO428886   4.960  18.348   1.962  0.0845  0.1697 -0.1960
    1DIPC   GL128887   5.062  18.200   2.382  0.2160  0.3629 -0.2707
    1DIPC   GL228888   4.860  18.159   2.740  0.1357 -0.2031 -0.0194
    1DIPC   C1A28889   5.334  18.023   2.847 -0.2860 -0.0430 -0.0006
    1DIPC   D2A28890   5.700  18.088   2.945 -0.1761  0.1184  0.0399
    1DIPC   D3A28891   5.537  18.416   3.218  0.1355  0.1067 -0.1720
    1DIPC   C4A28892   5.801  18.865   3.332  0.1388 -0.0765 -0.1925
    1DIPC   C1B28893   5.051  18.380   3.095  0.0186  0.0944 -0.2352
    1DIPC   D2B28894   4.978  18.653   3.437 -0.0181  0.2814  0.0656
    1DIPC   D3B28895   5.140  18.771   3.822  0.0933 -0.1080  0.1873
    1DIPC   C4B28896   5.294  18.413   4.057 -0.0122  0.1465  0.2514
    1DIPC   NC328897   0.063  21.263   2.294 -0.0745 -0.1272  0.2061
    1DIPC   PO428898   0.058  20.801   2.274  0.0128 -0.1636 -0.2690
    1DIPC   GL128899   0.003  20.791   2.721 -0.1691  0.2174  0.0530
    1DIPC   GL228900  -0.312  20.814   2.851 -0.2815  0.1816 -0.1732
    1DIPC   C1A28901   0.175  20.844   3.185  0.0540 -0.0484  0.3214
    1DIPC   D2A28902   0.081  20.830   3.754 -0.0441  0.0980  0.2203
    1DIPC   D3A28903  -0.262  20.504   3.974  0.1332  0.1452  0.0535
    1DIPC   C4A28904  -0.381  20.585   4.328 -0.0409 -0.1567 -0.0992
    1DIPC   C1B28905  -0.243  20.540   3.080 -0.0820  0.1914  0.1117
    1DIPC   D2B28906   0.001  20.392   3.461 -0.2104  0.1360  0.1713
    1DIPC   D3B28907   0.061  20.070   3.721  0.2829  0.0602 -0.3216
    1DIPC   C4B28908   0.320  19.930   3.964 -0.0329 -0.1502  0.0864
    1DIPC   NC328909   2.721  11.699   2.778  0.0400  0.2254 -0.2563
    1DIPC   PO428910   2.754  11.276   2.704  0.0803  0.0744  0.2437
    1DIPC   GL128911   2.637  11.390   3.184  0.3449  0.2222 -0.1471
    1DIPC   GL228912   2.897  11.288   3.392 -0.0581 -0.0489  0.1761
    1DIPC   C1A28913   2.505  11.412   3.646 -0.0552  0.1753  0.2064
    1DIPC   D2A28914   2.509  11.654   4.002 -0.2261  0.2991 -0.0216
    1DIPC   D3A28915   2.835  11.461   4.203  0.0793 -0.0821  0.3815
    1DIPC   C4A28916   3.022  11.286   4.559  0.0577  0.1620 -0.0898
    1DIPC   C1B28917   3.278  11.459   3.404  0.1706 -0.1726 -0.1188
    1DIPC   D2B28918   3.700  11.418   3.280  0.2038 -0.0754 -0.1294
    1DIPC   D3B28919   3.823  11.433   3.734 -0.0054  0.5321 -0.2145
    1DIPC   C4B28920   3.702  11.585   4.209  0.1695 -0.0425  0.0256
    1DIPC   NC328921   4.511   8.989   2.693  0.3778  0.1673  0.2061
    1DIPC   PO428922   4.229   9.249   3.064  0.2243  0.1121 -0.2246
    1DIPC   GL128923   4.147   9.397   3.515  0.0120  0.0109  0.0163
    1DIPC   GL228924   4.202   9.156   3.836  0.1364 -0.0315 -0.0604
    1DIPC   C1A28925   4.032   9.623   3.894  0.1161  0.2335 -0.0343
    1DIPC   D2A28926   3.811   9.727   4.256 -0.0086 -0.3210  0.0429
    1DIPC   D3A28927   3.660   9.323   4.372 -0.1388 -0.3308 -0.2458
    1DIPC   C4A28928   3.806   8.898   4.267  0.2224  0.0277 -0.0142
    1DIPC   C1B28929   4.179   9.281   4.261  0.2187  0.0596 -0.3061
    1DIPC   D2B28930   4.073   9.432   4.615  0.0291  0.2476 -0.0008
    1DIPC   D3B28931   3.849   9.194   4.950 -0.0170  0.1319  0.0329
    1DIPC   C4B28932   3.449   9.261   4.889 -0.1777  0.3674  0.2747
    1DIPC   NC328933   1.668  18.758   1.926  0.0360 -0.0016 -0.3223
    1DIPC   PO428934   1.680  18.591   2.418 -0.0705  0.2445 -0.1282
    1DIPC   GL128935   1.769  18.555   2.833  0.0926  0.0405 -0.0920
    1DIPC   GL228936   1.580  18.378   3.058  0.1129 -0.2209  0.1259
    1DIPC   C1A28937   2.086  18.631   3.118  0.1614  0.0467 -0.0451
    1DIPC   D2A28938   2.455  18.190   3.266 -0.0517 -0.0351  0.3495
    1DIPC   D3A28939   2.538  18.046   3.595 -0.2897  0.0575 -0.0084
    1DIPC   C4A28940   2.301  18.022   3.957  0.0414  0.2604 -0.3202
    1DIPC   C1B28941   1.701  18.437   3.415 -0.0719  0.1763  0.0705
    1DIPC   D2B28942   2.053  18.298   3.574  0.0272 -0.0101 -0.1888
    1DIPC   D3B28943   2.370  18.560   3.633 -0.1359 -0.1776  0.2339
    1DIPC   C4B28944   2.628  18.439   3.966  0.0064  0.1932  0.0378
    1DIPC   NC328945  24.371  11.054   2.654  0.0212 -0.0418  0.2564
    1DIPC   PO428946  24.744  10.791   2.664  0.0710  0.0158  0.2582
    1DIPC   GL128947  24.866  10.582   3.037 -0.1535  0.2798 -0.0873
    1DIPC   GL228948  24.978  10.362   2.957  0.2205 -0.3425  0.1212
    1DIPC   C1A28949  25.328  10.495   3.239  0.0542  0.0425 -0.2993
    1DIPC   D2A28950  25.393  10.528   3.692  0.2796  0.0685 -0.0584
    1DIPC   D3A28951  25.624  10.856   3.939 -0.0344 -0.0816  0.0104
    1DIPC   C4A28952  26.058  10.871   4.060 -0.2303  0.1581  0.2446
    1DIPC   C1B28953  24.975  10.178   3.377  0.0403  0.1142  0.3188
    1DIPC   D2B28954  24.628  10.107   3.696 -0.0073 -0.3246 -0.0955
    1DIPC   D3B28955  24.516  10.039   4.020  0.2386  0.0409 -0.0528
    1DIPC   C4B28956  24.836   9.750   4.151  0.2412 -0.0767  0.0678
    1DIPC   NC328957  21.688   7.269   2.307  0.1315  0.0439 -0.0412
    1DIPC   PO428958  22.026   7.103   2.606  0.2495 -0.1693  0.3132
    1DIPC   GL128959  21.845   7.377   2.940 -0.0835 -0.1848 -0.0614
    1DIPC   GL228960  21.637   7.571   2.874 -0.1057 -0.0732 -0.2659
    1DIPC   C1A28961  21.626   7.487   3.357 -0.0715  0.0734 -0.2148
    1DIPC   D2A28962  21.207   7.727   3.559 -0.0320 -0.1653 -0.0047
    1DIPC   D3A28963  21.102   7.781   3.909  0.0917  0.4274 -0.1386
    1DIPC   C4A28964  21.144   8.054   4.207  0.1836  0.0043  0.0990
    1DIPC   C1B28965  21.327   7.818   3.075 -0.0015 -0.2805  0.1912
    1DIPC   D2B28966  21.165   8.167   3.313  0.0041 -0.0013 -0.1137
    1DIPC   D3B28967  20.837   8.443   3.558 -0.1154 -0.0878  0.1138
    1DIPC   C4B28968  20.603   8.731   3.441  0.1014 -0.2009 -0.3029
    1DIPC   NC328969  12.283   3.946   3.311  0.0082 -0.0303 -0.2271
    1DIPC   PO428970  12.746   3.632   3.363  0.1582  0.0317 -0.2115
    1DIPC   GL128971  12.824   3.856   3.769 -0.3001  0.2293  0.0937
    1DIPC   GL228972  12.840   3.604   3.972 -0.1008  0.1410  0.2921
    1DIPC   C1A28973  12.668   4.189   4.147 -0.1354 -0.2276 -0.2826
    1DIPC   D2A28974  12.537   4.227   4.630 -0.0767  0.3435  0.1365
    1DIPC   D3A28975  12.876   4.269   5.023 -0.1075 -0.2745 -0.1956
    1DIPC   C4A28976  13.287   4.262   4.996  0.3990  0.1899 -0.0420
    1DIPC   C1B28977  12.991   3.352   4.278  0.0034  0.0335 -0.3346
    1DIPC   D2B28978  13.081   2.901   4.381  0.2402 -0.0227 -0.0769
    1DIPC   D3B28979  13.270   3.123   4.730  0.1880 -0.0154 -0.2228
    1DIPC   C4B28980  13.092   3.542   4.761  0.0752 -0.1333 -0.2168
    1DIPC   NC328981   8.472  12.721   2.699  0.1521 -0.0050 -0.1014
    1DIPC   PO428982   8.322  12.302   2.583 -0.3367  0.3531  0.1228
    1DIPC   GL128983   8.303  12.308   3.076 -0.2006 -0.0455  0.2619
    1DIPC   GL228984   8.114  12.327   3.288 -0.1980  0.1257 -0.1087
    1DIPC   C1A28985   8.484  12.141   3.529  0.1861  0.0341  0.4073
    1DIPC   D2A28986   8.535  11.818   3.761 -0.0682  0.0773  0.1475
    1DIPC   D3A28987   8.491  11.923   4.178  0.0477 -0.1763 -0.0752
    1DIPC   C4A28988   8.676  12.026   4.563  0.1251 -0.1195 -0.0930
    1DIPC   C1B28989   7.894  12.355   3.595 -0.1017 -0.2813  0.2203
    1DIPC   D2B28990   7.597  12.340   3.930 -0.2495 -0.1207  0.2125
    1DIPC   D3B28991   7.634  12.662   4.188 -0.0763 -0.1275  0.0834
    1DIPC   C4B28992   7.977  12.601   4.522  0.2143 -0.2238 -0.2091
    1DIPC   NC328993  23.574  25.986   3.181  0.2556 -0.1213 -0.1437
    1DIPC   PO428994  23.198  25.767   3.090  0.3847  0.1973 -0.1034
    1DIPC   GL128995  23.111  25.870   3.556 -0.1942 -0.0732 -0.1646
    1DIPC   GL228996  22.913  26.148   3.654 -0.2283  0.1646 -0.1900
    1DIPC   C1A28997  23.419  26.010   3.852 -0.1348 -0.0452  0.0739
    1DIPC   D2A28998  23.720  25.907   4.224  0.3100 -0.1089 -0.1447
    1DIPC   D3A28999  23.577  25.885   4.756 -0.0660 -0.0622 -0.1863
    1DIPC   C4A29000  23.127  25.746   4.848  0.1566 -0.0194  0.1552
    1DIPC   C1B29001  23.026  26.241   4.044 -0.1171 -0.3782  0.1274
    1DIPC   D2B29002  23.423  26.293   4.335 -0.1476  0.1300 -0.2492
    1DIPC   D3B29003  23.512  26.488   4.762  0.1057 -0.1052  0.2877
    1DIPC   C4B29004  23.229  26.664   4.991  0.1143  0.1790  0.1704
    1DIPC   NC329005   4.696   5.897   3.284 -0.3334  0.0952  0.1513
    1DIPC   PO429006   4.601   6.241   3.409  0.0409  0.3230  0.0513
    1DIPC   GL129007   4.574   6.273   3.778 -0.0620  0.1541  0.0764
    1DIPC   GL229008   4.520   5.992   3.909  0.1340 -0.0971 -0.0551
    1DIPC   C1A29009   4.877   6.401   4.120  0.0638  0.0253  0.5504
    1DIPC   D2A29010   5.310   6.641   4.179  0.1965 -0.0028  0.0630
    1DIPC   D3A29011   5.610   6.391   4.385 -0.0306  0.0860  0.0898
    1DIPC   C4A29012   5.439   6.346   4.898 -0.2563 -0.3196  0.1686
    1DIPC   C1B29013   4.263   5.760   4.178 -0.1149 -0.1003  0.0617
    1DIPC   D2B29014   4.043   5.449   4.385 -0.3960 -0.2934  0.0170
    1DIPC   D3B29015   3.946   5.601   4.895 -0.3705 -0.0087 -0.0331
    1DIPC   C4B29016   3.740   5.855   5.283 -0.0933  0.1498  0.3143
    1DIPC   NC329017  26.013  24.603   2.980  0.1845  0.0489  0.1491
    1DIPC   PO429018  25.973  25.066   2.870 -0.0837  0.2434  0.1943
    1DIPC   GL129019  26.010  25.215   3.244 -0.0420 -0.0287  0.2276
    1DIPC   GL229020  26.116  24.892   3.421 -0.0209 -0.1273  0.3180
    1DIPC   C1A29021  25.829  25.162   3.667 -0.0095 -0.1644  0.0165
    1DIPC   D2A29022  25.817  25.203   4.097  0.1596 -0.0377 -0.3916
    1DIPC   D3A29023  25.417  25.002   4.107 -0.0135 -0.4056  0.1088
    1DIPC   C4A29024  25.480  24.601   4.214 -0.0306  0.2162 -0.0066
    1DIPC   C1B29025  26.269  24.998   3.857  0.1840 -0.1645  0.0887
    1DIPC   D2B29026  26.462  24.676   4.054 -0.1173  0.2717 -0.0818
    1DIPC   D3B29027  26.426  24.934   4.388  0.1292 -0.1808  0.2620
    1DIPC   C4B29028  26.264  25.359   4.268  0.4234 -0.2621 -0.0902
    1DIPC   NC329029   6.748   4.636   3.161  0.1518 -0.0328  0.2869
    1DIPC   PO429030   6.376   4.617   3.463 -0.1279 -0.0551 -0.1387
    1DIPC   GL129031   6.200   4.482   3.951  0.0204  0.1041 -0.2768
    1DIPC   GL229032   6.288   4.146   4.067  0.0861  0.1350  0.1534
    1DIPC   C1A29033   5.991   4.432   4.317 -0.2069 -0.2381 -0.0687
    1DIPC   D2A29034   5.975   4.636   4.659 -0.3825 -0.1809  0.0081
    1DIPC   D3A29035   6.042   5.082   4.591  0.0110 -0.0723 -0.0525
    1DIPC   C4A29036   6.080   5.324   4.246  0.2386  0.1329  0.1623
    1DIPC   C1B29037   6.133   3.773   4.350 -0.3461 -0.1222  0.0362
    1DIPC   D2B29038   6.228   3.712   4.729  0.1060 -0.0589 -0.1634
    1DIPC   D3B29039   6.055   3.308   4.815 -0.2614  0.0584 -0.1236
    1DIPC   C4B29040   5.655   3.273   4.806 -0.2170  0.2196 -0.4196
    1DIPC   NC329041  23.038  23.352   3.143 -0.0728 -0.2634  0.0537
    1DIPC   PO429042  23.328  23.594   3.199  0.0544 -0.2397  0.3255
    1DIPC   GL129043  23.345  23.203   3.493  0.0699  0.1107  0.1065
    1DIPC   GL229044  23.442  23.416   3.769  0.0883  0.1958 -0.1993
    1DIPC   C1A29045  23.421  22.962   3.913  0.1950 -0.1259  0.0634
    1DIPC   D2A29046  23.399  22.887   4.341 -0.0741  0.0253 -0.0824
    1DIPC   D3A29047  23.552  22.497   4.234  0.2232 -0.0642  0.0135
    1DIPC   C4A29048  23.351  22.163   3.968  0.0044 -0.0896 -0.0176
    1DIPC   C1B29049  23.188  23.332   4.120  0.1780 -0.2673 -0.0728
    1DIPC   D2B29050  22.963  22.978   4.045 -0.0439 -0.0910  0.1953
    1DIPC   D3B29051  22.777  22.805   4.366 -0.0348  0.3060  0.0488
    1DIPC   C4B29052  22.776  22.230   4.539  0.0194 -0.0434 -0.0204
    1DIPC   NC329053  26.623   2.903   2.888 -0.2340  0.1514  0.1215
    1DIPC   PO429054  26.830   2.557   3.218 -0.0719  0.0381 -0.0491
    1DIPC   GL129055  27.079   2.672   3.632 -0.0497  0.2011  0.1540
    1DIPC   GL229056  27.355   2.885   3.668  0.2769  0.0280  0.1455
    1DIPC   C1A29057  26.999   2.764   3.993  0.0319  0.1661  0.1992
    1DIPC   D2A29058  26.823   2.752   4.352 -0.0350 -0.0180 -0.1808
    1DIPC   D3A29059  26.642   2.415   4.148  0.3318 -0.1930 -0.2087
    1DIPC   C4A29060  26.367   2.481   3.742  0.1666  0.1547 -0.0949
    1DIPC   C1B29061  27.818   2.942   3.813  0.3388 -0.0077 -0.4392
    1DIPC   D2B29062  28.009   2.669   4.177 -0.2445  0.0533  0.2610
    1DIPC   D3B29063  28.025   2.744   4.616  0.3814  0.2182  0.2698
    1DIPC   C4B29064  27.736   2.791   4.914 -0.1339  0.2123  0.4239
    1DIPC   NC329065  14.721   5.401   2.931 -0.2401 -0.0278  0.1134
    1DIPC   PO429066  14.523   5.033   2.947  0.1271 -0.1529  0.0999
    1DIPC   GL129067  14.790   5.115   3.372  0.1129  0.1546 -0.0096
    1DIPC   GL229068  14.617   4.934   3.537 -0.0668  0.1447 -0.2134
    1DIPC   C1A29069  14.870   5.249   3.799  0.1023 -0.0441 -0.0796
    1DIPC   D2A29070  14.758   5.218   4.267 -0.3759 -0.1603 -0.0717
    1DIPC   D3A29071  14.902   5.229   4.646 -0.2751  0.1900 -0.1623
    1DIPC   C4A29072  15.272   5.010   4.660 -0.0288  0.0429  0.1031
    1DIPC   C1B29073  14.886   4.745   3.866  0.0132 -0.1234 -0.0879
    1DIPC   D2B29074  14.898   4.354   4.141 -0.0131  0.0091 -0.0739
    1DIPC   D3B29075  14.919   4.734   4.392 -0.0333 -0.0539  0.0437
    1DIPC   C4B29076  14.588   4.818   4.682 -0.0454 -0.0073  0.1627
    1DIPC   NC329077   8.239   8.414   3.245 -0.0648  0.2021  0.0717
    1DIPC   PO429078   7.909   8.202   3.146 -0.1461 -0.0599 -0.0854
    1DIPC   GL129079   7.890   8.053   3.667 -0.0463  0.1894 -0.2052
    1DIPC   GL229080   7.909   7.662   3.734  0.2507  0.0413 -0.3837
    1DIPC   C1A29081   7.602   8.124   3.935 -0.1472 -0.0297 -0.0831
    1DIPC   D2A29082   7.709   8.136   4.340 -0.1594  0.0064  0.1098
    1DIPC   D3A29083   7.625   8.192   4.818 -0.0355  0.1965  0.4482
    1DIPC   C4A29084   7.688   7.872   5.136  0.3814  0.2565 -0.1478
    1DIPC   C1B29085   7.807   7.579   4.196 -0.0765 -0.2328  0.1525
    1DIPC   D2B29086   7.884   7.810   4.666 -0.0133 -0.0668  0.2063
    1DIPC   D3B29087   8.394   7.755   4.680 -0.3731  0.0752  0.3553
    1DIPC   C4B29088   8.458   7.769   5.150 -0.0304 -0.1576  0.1734
    1DIPC   NC329089   7.616  24.435   2.358  0.0959 -0.2227  0.0964
    1DIPC   PO429090   7.984  24.594   2.220 -0.3458 -0.0310  0.1710
    1DIPC   GL129091   8.042  24.542   2.669  0.2210 -0.1643 -0.1085
    1DIPC   GL229092   8.209  24.795   2.980 -0.0567 -0.3420  0.2783
    1DIPC   C1A29093   7.718  24.611   2.989  0.1108 -0.0781  0.0187
    1DIPC   D2A29094   7.491  24.994   3.148  0.0620 -0.2812  0.0301
    1DIPC   D3A29095   7.359  25.253   3.371  0.0037 -0.1681  0.0536
    1DIPC   C4A29096   7.128  25.096   3.688  0.1010  0.0213 -0.1186
    1DIPC   C1B29097   8.286  24.470   3.083 -0.0993 -0.2415  0.0254
    1DIPC   D2B29098   8.430  24.048   3.093  0.1058 -0.0028  0.1829
    1DIPC   D3B29099   8.219  23.594   3.054  0.0209  0.1955 -0.0521
    1DIPC   C4B29100   7.750  23.544   3.017  0.0923 -0.1521 -0.0752
    1DIPC   NC329101  24.014   0.061   3.629  0.3183  0.3621 -0.0963
    1DIPC   PO429102  24.186  -0.433   3.573  0.1147 -0.0189 -0.0191
    1DIPC   GL129103  24.239  -0.228   4.025 -0.0526 -0.1575  0.0400
    1DIPC   GL229104  24.352   0.065   4.066  0.0696  0.0793 -0.1043
    1DIPC   C1A29105  24.243  -0.415   4.412 -0.0548 -0.2462 -0.2467
    1DIPC   D2A29106  24.516  -0.371   4.679 -0.0063  0.2551 -0.2571
    1DIPC   D3A29107  24.479  -0.806   4.835 -0.4104 -0.0558  0.3689
    1DIPC   C4A29108  24.152  -0.745   5.068 -0.0456  0.1142 -0.2157
    1DIPC   C1B29109  24.446   0.145   4.548  0.1255  0.1863  0.0292
    1DIPC   D2B29110  24.112  -0.112   4.858  0.0185  0.0562  0.0189
    1DIPC   D3B29111  24.393   0.007   5.214  0.0882 -0.1873  0.0245
    1DIPC   C4B29112  24.421   0.481   5.215 -0.0357 -0.2099 -0.1594
    1DIPC   NC329113   7.941  29.133   2.616 -0.2597  0.2494  0.1091
    1DIPC   PO429114   7.840  28.831   2.923 -0.1642 -0.2096 -0.1567
    1DIPC   GL129115   7.972  28.500   3.244  0.2078 -0.2230  0.0059
    1DIPC   GL229116   8.199  28.571   3.580  0.1010 -0.0134  0.1178
    1DIPC   C1A29117   7.792  28.203   3.595  0.1616  0.0621 -0.2638
    1DIPC   D2A29118   7.746  27.929   3.932  0.2320 -0.0667 -0.0828
    1DIPC   D3A29119   7.474  28.216   3.993  0.1777  0.0051  0.0887
    1DIPC   C4A29120   7.210  28.353   3.644 -0.0951 -0.2141 -0.1921
    1DIPC   C1B29121   7.952  28.511   4.003  0.0231 -0.0124  0.2443
    1DIPC   D2B29122   7.822  28.297   4.401  0.1043  0.3529  0.2998
    1DIPC   D3B29123   7.589  27.913   4.507  0.0007  0.2876  0.1910
    1DIPC   C4B29124   7.435  27.523   4.261 -0.3813  0.3258 -0.1590
    1DIPC   NC329125   1.301  26.381   2.579 -0.3866 -0.1483 -0.0860
    1DIPC   PO429126   1.110  26.063   2.503  0.1363 -0.0952 -0.2400
    1DIPC   GL129127   1.004  25.828   2.887  0.0722 -0.0327  0.0506
    1DIPC   GL229128   1.043  26.111   3.046  0.2826 -0.1111 -0.3256
    1DIPC   C1A29129   1.056  25.639   3.237  0.4253  0.0525 -0.2259
    1DIPC   D2A29130   0.868  25.338   3.585 -0.0616  0.0465  0.3527
    1DIPC   D3A29131   0.774  25.614   3.793 -0.1250 -0.2124 -0.0561
    1DIPC   C4A29132   1.149  25.680   3.867  0.1957 -0.2790  0.4176
    1DIPC   C1B29133   1.278  26.120   3.491 -0.1615  0.2736  0.0846
    1DIPC   D2B29134   1.116  26.348   3.791  0.2729 -0.0701 -0.0015
    1DIPC   D3B29135   1.459  26.160   4.102 -0.0035 -0.0413 -0.3069
    1DIPC   C4B29136   1.381  25.950   4.485  0.0389  0.0902 -0.1256
    1DIPC   NC329137  28.568   5.010   3.087  0.1967 -0.2945  0.2248
    1DIPC   PO429138  28.251   4.666   3.152  0.2949  0.1595 -0.0124
    1DIPC   GL129139  28.202   4.266   3.383 -0.1516  0.1236  0.0682
    1DIPC   GL229140  28.497   4.048   3.416  0.3363  0.2336 -0.2800
    1DIPC   C1A29141  28.156   4.185   3.757  0.1445 -0.2814  0.1105
    1DIPC   D2A29142  28.233   3.855   4.097 -0.0723  0.1433 -0.0007
    1DIPC   D3A29143  28.604   3.892   4.401  0.3444 -0.1951 -0.2109
    1DIPC   C4A29144  28.653   3.822   4.867 -0.0038 -0.2402 -0.0543
    1DIPC   C1B29145  28.661   4.162   3.838 -0.0649  0.1783  0.1331
    1DIPC   D2B29146  28.510   4.350   4.210 -0.0717  0.0712 -0.1087
    1DIPC   D3B29147  28.011   4.461   4.140  0.0199 -0.2669 -0.0782
    1DIPC   C4B29148  27.738   4.450   3.782 -0.2295 -0.1959 -0.2930
    1DIPC   NC329149  29.188  14.527   2.207  0.1933 -0.1493 -0.3330
    1DIPC   PO429150  28.865  14.307   2.431  0.0399  0.1264 -0.1192
    1DIPC   GL129151  28.789  14.411   2.872  0.2881  0.0198  0.1949
    1DIPC   GL229152  28.906  14.667   3.071 -0.3472 -0.0324 -0.0915
    1DIPC   C1A29153  28.687  14.228   3.234  0.2233 -0.0706  0.1011
    1DIPC   D2A29154  28.938  14.226   3.524  0.2609 -0.1821  0.0129
    1DIPC   D3A29155  28.732  14.465   3.867  0.0922 -0.4839 -0.1338
    1DIPC   C4A29156  28.326  14.357   3.776  0.0255 -0.1797 -0.2531
    1DIPC   C1B29157  29.257  14.754   3.070 -0.2076 -0.0706 -0.1749
    1DIPC   D2B29158  29.669  14.450   3.036 -0.0563  0.2190 -0.0792
    1DIPC   D3B29159  29.953  14.297   3.402 -0.2713 -0.1552  0.2491
    1DIPC   C4B29160  30.077  14.568   3.777 -0.2784 -0.3273 -0.2900
    1DIPC   NC329161  10.111  21.447   2.408 -0.1834  0.3552  0.0342
    1DIPC   PO429162  10.489  21.217   2.364  0.0424 -0.2560 -0.2148
    1DIPC   GL129163  10.741  21.451   2.623 -0.2055 -0.1156  0.0543
    1DIPC   GL229164  10.588  21.737   2.628  0.0181  0.1795  0.4013
    1DIPC   C1A29165  10.665  21.543   3.028  0.0858  0.2014  0.3699
    1DIPC   D2A29166  10.657  21.836   3.405 -0.1503 -0.2101  0.2254
    1DIPC   D3A29167  11.005  21.986   3.604  0.2026  0.0262 -0.0774
    1DIPC   C4A29168  10.959  22.451   3.654  0.0310 -0.1831 -0.1285
    1DIPC   C1B29169  10.672  22.064   2.927  0.3178  0.0188 -0.0012
    1DIPC   D2B29170  10.892  22.404   3.148 -0.1003 -0.1331 -0.0664
    1DIPC   D3B29171  10.746  22.763   3.296 -0.3433 -0.0376 -0.0513
    1DIPC   C4B29172  10.588  22.818   3.704  0.2314  0.1469 -0.2689
    1DIPC   NC329173  14.545   8.680   2.803 -0.2974 -0.0510  0.0801
    1DIPC   PO429174  14.809   8.200   2.731 -0.2917 -0.2520 -0.0548
    1DIPC   GL129175  14.848   8.369   3.164  0.0923  0.1014  0.1037
    1DIPC   GL229176  14.849   8.683   3.151 -0.0115 -0.1447 -0.0164
    1DIPC   C1A29177  14.850   8.530   3.604 -0.2161 -0.1709 -0.0578
    1DIPC   D2A29178  14.916   8.881   3.828  0.2109 -0.2362 -0.0382
    1DIPC   D3A29179  14.989   8.654   4.147 -0.1528  0.2685  0.0144
    1DIPC   C4A29180  15.426   8.741   4.256 -0.0138 -0.0673  0.1667
    1DIPC   C1B29181  15.195   8.776   3.287 -0.1853 -0.1353  0.1158
    1DIPC   D2B29182  15.381   8.691   3.706 -0.1350  0.1649  0.1950
    1DIPC   D3B29183  15.730   9.003   3.958 -0.2701  0.1311  0.2238
    1DIPC   C4B29184  15.689   9.446   4.033 -0.1352 -0.0524 -0.0956
    1CHOL   ROH29185  17.059  18.284   6.342  0.0794 -0.1145  0.0588
    1CHOL    R129186  17.201  18.389   6.120  0.0153  0.0572  0.0982
    1CHOL    R229187  17.118  18.351   5.860  0.0242  0.1258  0.0853
    1CHOL    R329188  17.134  18.623   5.850 -0.1195  0.1386  0.2025
    1CHOL    R429189  17.043  18.543   5.582  0.2851  0.1802  0.0515
    1CHOL    R529190  17.215  18.669   5.629  0.1497  0.2623  0.3266
    1CHOL    C129191  17.014  18.910   5.411  0.3014  0.2235  0.1422
    1CHOL    C229192  16.752  18.739   5.136  0.1210 -0.0334  0.0942
    1CHOL   ROH29193  17.947   8.404   5.888  0.3497 -0.2708  0.0372
    1CHOL    R129194  17.789   8.357   5.658  0.2108 -0.1664  0.1106
    1CHOL    R229195  17.850   8.466   5.412  0.1809 -0.2212  0.0779
    1CHOL    R329196  17.838   8.207   5.330 -0.0471 -0.2175  0.0947
    1CHOL    R429197  17.867   8.362   5.082  0.3223 -0.2747  0.1023
    1CHOL    R529198  17.712   8.215   5.126  0.1230 -0.0963 -0.0050
    1CHOL    C129199  17.866   8.059   4.814  0.1935 -0.3010  0.1324
    1CHOL    C229200  17.759   8.158   4.425 -0.1330 -0.3550  0.2809
    1CHOL   ROH29201  12.616  17.546   6.180  0.0757  0.1628  0.1453
    1CHOL    R129202  12.673  17.679   5.936 -0.0396  0.0391  0.0498
    1CHOL    R229203  12.889  17.613   5.778 -0.0292  0.0548  0.0555
    1CHOL    R329204  12.699  17.588   5.585 -0.0480 -0.1760  0.1046
    1CHOL    R429205  12.951  17.521   5.450 -0.0100  0.0591  0.0582
    1CHOL    R529206  12.804  17.670   5.386 -0.1783 -0.1030  0.0646
    1CHOL    C129207  12.808  17.443   5.079 -0.0168 -0.1564  0.1053
    1CHOL    C229208  13.025  17.393   4.780 -0.1747 -0.2046  0.0595
    1CHOL   ROH29209  12.079  25.670   3.403 -0.0336  0.1935  0.0191
    1CHOL    R129210  12.064  25.648   3.685 -0.0243  0.1183  0.0138
    1CHOL    R229211  11.907  25.460   3.812  0.0647  0.0135 -0.0325
    1CHOL    R329212  12.141  25.396   3.936  0.0946  0.0958 -0.0467
    1CHOL    R429213  11.933  25.263   4.095  0.1521  0.0162 -0.0393
    1CHOL    R529214  12.087  25.399   4.169  0.1063  0.0696 -0.0436
    1CHOL    C129215  12.168  25.088   4.376  0.2313  0.0930 -0.0566
    1CHOL    C229216  12.374  24.885   4.645  0.1872 -0.2530  0.0490
    1CHOL   ROH29217  19.689  10.251   5.813 -0.1410  0.1979  0.1237
    1CHOL    R129218  19.544  10.146   5.593 -0.0563  0.1378  0.0975
    1CHOL    R229219  19.538  10.269   5.346  0.1100  0.0242  0.0360
    1CHOL    R329220  19.621  10.025   5.259  0.0830 -0.0407  0.1935
    1CHOL    R429221  19.590  10.185   5.015  0.0210 -0.2208  0.0842
    1CHOL    R529222  19.500   9.990   5.055  0.0296 -0.1898  0.2511
    1CHOL    C129223  19.698   9.907   4.740 -0.0539 -0.4232  0.2596
    1CHOL    C229224  19.585   9.628   4.444  0.5242  0.2243 -0.1064
    1CHOL   ROH29225  17.298  10.223   5.980 -0.0410 -0.0887 -0.1498
    1CHOL    R129226  17.300  10.256   5.699  0.0305 -0.1030 -0.1514
    1CHOL    R229227  17.157  10.092   5.529  0.0203 -0.0696 -0.1751
    1CHOL    R329228  17.055  10.328   5.440  0.1102 -0.0439 -0.2086
    1CHOL    R429229  16.995  10.135   5.227  0.2670  0.0038 -0.2961
    1CHOL    R529230  17.099  10.326   5.204  0.2975  0.0010 -0.1743
    1CHOL    C129231  16.805  10.381   4.967  0.4935  0.0708 -0.3981
    1CHOL    C229232  16.748  10.352   4.536 -0.2088 -0.1739 -0.0938
    1CHOL   ROH29233  29.129  16.880   2.879 -0.0779 -0.0667 -0.1073
    1CHOL    R129234  29.313  16.949   3.084 -0.1135  0.0410 -0.1128
    1CHOL    R229235  29.232  17.009   3.341 -0.1394 -0.0235 -0.1061
    1CHOL    R329236  29.411  16.815   3.407 -0.0120  0.0889 -0.1240
    1CHOL    R429237  29.367  16.964   3.656 -0.2060 -0.0410 -0.0805
    1CHOL    R529238  29.559  16.921   3.563 -0.1440  0.1440 -0.0356
    1CHOL    C129239  29.612  16.756   3.902 -0.1231  0.0534 -0.0823
    1CHOL    C229240  29.735  16.955   4.228  0.2736 -0.6423  0.2216
    1CHOL   ROH29241  13.603  15.445   6.254 -0.1081  0.1565 -0.2048
    1CHOL    R129242  13.719  15.393   6.001 -0.0329  0.0720 -0.1528
    1CHOL    R229243  13.603  15.225   5.816  0.0009  0.0449 -0.1482
    1CHOL    R329244  13.626  15.441   5.653  0.0915 -0.0013 -0.1958
    1CHOL    R429245  13.544  15.222   5.476 -0.0510  0.0057 -0.1392
    1CHOL    R529246  13.717  15.352   5.449  0.0143 -0.0911 -0.1910
    1CHOL    C129247  13.531  15.423   5.124  0.0036 -0.0594 -0.1785
    1CHOL    C229248  13.414  15.358   4.760 -0.1898  0.2089 -0.1510
    1CHOL   ROH29249  14.675  11.339   6.021 -0.0375 -0.3184 -0.0218
    1CHOL    R129250  14.706  11.483   5.779  0.0296 -0.1812  0.0684
    1CHOL    R229251  14.800  11.367   5.547  0.1036 -0.0474  0.0309
    1CHOL    R329252  14.570  11.466   5.442  0.1314  0.0032  0.0174
    1CHOL    R429253  14.732  11.390   5.209  0.1278 -0.0348  0.0272
    1CHOL    R529254  14.641  11.585   5.246  0.1693 -0.0143  0.0205
    1CHOL    C129255  14.476  11.496   4.913  0.1674  0.0204  0.0124
    1CHOL    C229256  14.590  11.833   4.711 -0.0180 -0.1344  0.0106
    1CHOL   ROH29257  21.112  18.193   3.189  0.0480 -0.2624  0.1005
    1CHOL    R129258  21.078  18.304   3.447  0.1621 -0.0153  0.0092
    1CHOL    R229259  20.908  18.195   3.635  0.0030  0.3539  0.0787
    1CHOL    R329260  21.131  18.196   3.790 -0.0109  0.1912  0.1010
    1CHOL    R429261  20.909  18.169   3.979 -0.0582  0.4950  0.0895
    1CHOL    R529262  21.067  18.319   3.985  0.0925  0.3366  0.0433
    1CHOL    C129263  21.118  18.155   4.326 -0.1073  0.4260  0.1164
    1CHOL    C229264  21.010  18.294   4.581  0.1898 -0.1302 -0.2915
    1CHOL   ROH29265   6.567  11.444   3.746 -0.1341  0.3626 -0.0612
    1CHOL    R129266   6.553  11.359   4.015 -0.2177  0.1078 -0.1452
    1CHOL    R229267   6.695  11.482   4.218 -0.0053 -0.3096 -0.0409
    1CHOL    R329268   6.450  11.505   4.333  0.0453 -0.0649  0.0193
    1CHOL    R429269   6.638  11.499   4.558  0.0782 -0.4783 -0.0186
    1CHOL    R529270   6.464  11.369   4.530 -0.0999 -0.2270 -0.0806
    1CHOL    C129271   6.374  11.530   4.865  0.1742 -0.3463  0.0513
    1CHOL    C229272   6.249  11.786   5.093 -0.1249 -0.2006 -0.1900
    1CHOL   ROH29273  18.326  11.178   2.637  0.0435 -0.1557  0.0004
    1CHOL    R129274  18.416  11.161   2.905  0.0229  0.0291  0.0190
    1CHOL    R229275  18.321  11.326   3.105 -0.2336 -0.0532 -0.0354
    1CHOL    R329276  18.267  11.091   3.230  0.0640 -0.0962  0.0113
    1CHOL    R429277  18.357  11.271   3.444 -0.1154  0.0467 -0.0317
    1CHOL    R529278  18.438  11.073   3.398  0.1125  0.1335 -0.0117
    1CHOL    C129279  18.329  11.017   3.759  0.2325  0.0631  0.0142
    1CHOL    C229280  18.146  11.374   3.953  0.2742  0.0905  0.0780
    1CHOL   ROH29281  12.127  19.665   2.961 -0.2975 -0.1071  0.1194
    1CHOL    R129282  12.217  19.659   3.230 -0.2961 -0.2003  0.1168
    1CHOL    R229283  12.104  19.815   3.428 -0.1508 -0.1064  0.1258
    1CHOL    R329284  12.075  19.576   3.554 -0.3611 -0.0849  0.1174
    1CHOL    R429285  12.094  19.774   3.771  0.0339 -0.1345  0.1280
    1CHOL    R529286  12.216  19.594   3.748 -0.2055 -0.2823  0.0221
    1CHOL    C129287  12.061  19.525   4.089 -0.0545 -0.1298  0.1212
    1CHOL    C229288  11.810  19.642   4.269 -0.1208  0.2289 -0.0999
    1CHOL   ROH29289  12.921   4.824   4.925  0.0714 -0.0351 -0.0472
    1CHOL    R129290  12.769   4.704   5.131  0.0825 -0.2346 -0.1545
    1CHOL    R229291  12.554   4.830   5.250  0.2446 -0.2491  0.1521
    1CHOL    R329292  12.422   4.603   5.180  0.0283 -0.0351 -0.1322
    1CHOL    R429293  12.259   4.722   5.392  0.2823 -0.2847  0.2034
    1CHOL    R529294  12.336   4.518   5.386  0.1340 -0.3302 -0.2091
    1CHOL    C129295  11.962   4.445   5.409  0.1008 -0.1041 -0.0337
    1CHOL    C229296  11.630   4.521   5.375  0.1586 -0.3427  0.2194
    1CHOL   ROH29297  27.898  23.698   3.378 -0.0645 -0.0397 -0.1065
    1CHOL    R129298  27.789  23.874   3.570 -0.0257 -0.1221 -0.0074
    1CHOL    R229299  27.775  23.810   3.839  0.2289 -0.1516  0.0000
    1CHOL    R329300  27.908  24.045   3.869  0.0990 -0.0651 -0.0904
    1CHOL    R429301  27.825  23.971   4.140  0.3414 -0.1249 -0.0327
    1CHOL    R529302  27.786  24.160   4.040  0.1478 -0.1469 -0.0012
    1CHOL    C129303  27.979  24.285   4.345  0.2846 -0.0301 -0.1363
    1CHOL    C229304  27.895  24.225   4.666 -0.2259 -0.4403 -0.0601
    1CHOL   ROH29305  12.588  21.518   5.524  0.1973  0.0576  0.0530
    1CHOL    R129306  12.665  21.675   5.301  0.2570 -0.0372  0.0069
    1CHOL    R229307  12.760  21.564   5.067 -0.0150 -0.1569 -0.0484
    1CHOL    R329308  12.561  21.710   4.954  0.0966  0.0855  0.0671
    1CHOL    R429309  12.758  21.676   4.740 -0.1121 -0.2356 -0.0741
    1CHOL    R529310  12.675  21.865   4.810  0.1965 -0.1059 -0.0567
    1CHOL    C129311  12.570  21.879   4.444 -0.0635 -0.0543  0.0191
    1CHOL    C229312  12.636  22.169   4.269 -0.0453 -0.1852 -0.2138
    1CHOL   ROH29313  29.663  13.187   5.417  0.0766  0.0249 -0.1118
    1CHOL    R129314  29.725  13.207   5.142  0.0381 -0.0372 -0.1249
    1CHOL    R229315  29.663  13.008   4.961 -0.0299 -0.0562 -0.0801
    1CHOL    R329316  29.540  13.212   4.829 -0.0094 -0.0541 -0.0975
    1CHOL    R429317  29.565  12.997   4.630  0.2632  0.0443 -0.1702
    1CHOL    R529318  29.633  13.203   4.608  0.1869  0.0854 -0.0203
    1CHOL    C129319  29.393  13.182   4.312  0.4547  0.1044 -0.2391
    1CHOL    C229320  29.736  13.003   4.052 -0.0407 -0.2286  0.0716
    1CHOL   ROH29321  21.824   9.499   3.749  0.1925 -0.0148 -0.0816
    1CHOL    R129322  21.675   9.375   3.955  0.2289  0.0329 -0.0272
    1CHOL    R229323  21.739   9.126   4.056  0.1582 -0.0058 -0.0803
    1CHOL    R329324  21.739   9.257   4.294  0.3258 -0.0299 -0.0668
    1CHOL    R429325  21.623   8.995   4.354  0.1431  0.0529 -0.0603
    1CHOL    R529326  21.535   9.189   4.400  0.3042  0.1144 -0.0160
    1CHOL    C129327  21.556   9.042   4.751  0.2928  0.0647 -0.0364
    1CHOL    C229328  21.291   9.185   4.977  0.1875  0.1544  0.0605
    1CHOL   ROH29329  19.636  10.921   2.481 -0.0571 -0.0925 -0.0303
    1CHOL    R129330  19.639  10.906   2.764 -0.0563 -0.1822 -0.0352
    1CHOL    R229331  19.620  11.130   2.925  0.1473 -0.2155  0.0355
    1CHOL    R329332  19.413  10.993   3.035  0.0343 -0.0697  0.0031
    1CHOL    R429333  19.539  11.131   3.261  0.1240 -0.1936  0.0297
    1CHOL    R529334  19.497  10.918   3.247 -0.0410 -0.1607  0.0006
    1CHOL    C129335  19.298  11.004   3.561  0.0027 -0.0434 -0.0043
    1CHOL    C229336  19.295  10.932   3.933  0.2297 -0.1550 -0.1493
    1CHOL   ROH29337  11.332  13.733   2.957  0.2518  0.1025  0.1500
    1CHOL    R129338  11.254  13.771   3.226  0.1006 -0.0353  0.1261
    1CHOL    R229339  11.118  13.578   3.370  0.0986 -0.1442 -0.0206
    1CHOL    R329340  11.323  13.611   3.546 -0.0027 -0.1395  0.0969
    1CHOL    R429341  11.103  13.503   3.707 -0.1540  0.0367  0.0086
    1CHOL    R529342  11.217  13.685   3.748 -0.1044  0.0095 -0.0110
    1CHOL    C129343  11.286  13.491   4.069 -0.3966  0.1462  0.1355
    1CHOL    C229344  11.230  13.779   4.292 -0.0031 -0.1696  0.2057
    1CHOL   ROH29345  18.329  19.163   6.595  0.0586  0.1855 -0.0288
    1CHOL    R129346  18.252  19.114   6.327 -0.0114  0.1345  0.0000
    1CHOL    R229347  18.198  19.317   6.148 -0.0850  0.1007 -0.0168
    1CHOL    R329348  18.383  19.188   5.996 -0.1116  0.0995 -0.0477
    1CHOL    R429349  18.199  19.310   5.802 -0.1726  0.0591 -0.0160
    1CHOL    R529350  18.258  19.100   5.812 -0.1488  0.0648 -0.0050
    1CHOL    C129351  18.373  19.184   5.458 -0.2480  0.0331 -0.0451
    1CHOL    C229352  18.367  19.187   4.994 -0.1021 -0.0590  0.0463
    1CHOL   ROH29353   9.278  13.054   3.422 -0.1063 -0.0560  0.1009
    1CHOL    R129354   9.206  12.993   3.689  0.0243  0.1440  0.1823
    1CHOL    R229355   9.256  12.747   3.804 -0.2023  0.1256  0.2413
    1CHOL    R329356   9.379  12.897   3.994  0.1398  0.0438  0.0849
    1CHOL    R429357   9.275  12.664   4.139 -0.0968  0.2627  0.2692
    1CHOL    R529358   9.239  12.873   4.188  0.2356  0.3381  0.1907
    1CHOL    C129359   9.402  12.756   4.513  0.2859  0.2656  0.1389
    1CHOL    C229360   9.252  12.805   4.819 -0.1839  0.0866 -0.1381
    1CHOL   ROH29361  11.533  13.390   3.175  0.2598 -0.1738 -0.0464
    1CHOL    R129362  11.543  13.210   3.393  0.2337 -0.0730  0.0385
    1CHOL    R229363  11.733  13.227   3.592  0.1628  0.0673  0.0943
    1CHOL    R329364  11.516  13.232   3.756  0.1070  0.0854  0.0198
    1CHOL    R429365  11.746  13.215   3.938  0.0453  0.1111  0.1001
    1CHOL    R529366  11.573  13.082   3.934  0.0486  0.1078  0.0579
    1CHOL    C129367  11.549  13.212   4.292 -0.0754  0.1535  0.0336
    1CHOL    C229368  11.274  13.406   4.646  0.0172  0.0470  0.0444
    1CHOL   ROH29369  12.576  22.062   5.495 -0.0317 -0.0272  0.0537
    1CHOL    R129370  12.600  22.108   5.217 -0.1369 -0.0753  0.0367
    1CHOL    R229371  12.384  22.095   5.045 -0.2389  0.0978  0.1518
    1CHOL    R329372  12.465  22.345   4.976 -0.0546  0.0206  0.0848
    1CHOL    R429373  12.346  22.235   4.731 -0.3080  0.1135  0.1662
    1CHOL    R529374  12.546  22.321   4.751 -0.2165 -0.0668  0.0358
    1CHOL    C129375  12.401  22.551   4.484 -0.1758  0.0482  0.1116
    1CHOL    C229376  12.413  22.600   4.098 -0.0983  0.2099  0.1317
    1CHOL   ROH29377  17.201  19.576   3.360 -0.0450  0.1138 -0.1942
    1CHOL    R129378  17.264  19.532   3.633  0.0000 -0.0334 -0.2280
    1CHOL    R229379  17.251  19.732   3.823  0.1007 -0.1179 -0.1320
    1CHOL    R329380  17.089  19.555   3.951  0.0758 -0.1274 -0.1794
    1CHOL    R429381  17.197  19.725   4.164 -0.0391 -0.0868 -0.1535
    1CHOL    R529382  17.204  19.507   4.156 -0.0038 -0.0849 -0.1261
    1CHOL    C129383  17.015  19.556   4.484 -0.1470 -0.0776 -0.2109
    1CHOL    C229384  17.019  19.664   4.835 -0.0113  0.0891 -0.0513
    1CHOL   ROH29385   4.663  10.052   6.016 -0.0686  0.2548 -0.2056
    1CHOL    R129386   4.634   9.876   5.796 -0.0250  0.1025 -0.0901
    1CHOL    R229387   4.784   9.901   5.566 -0.0767  0.0269 -0.1319
    1CHOL    R329388   4.846   9.641   5.616  0.0528  0.0875  0.0213
    1CHOL    R429389   4.906   9.677   5.331 -0.0370 -0.0710 -0.0179
    1CHOL    R529390   4.777   9.524   5.418  0.0539 -0.0715  0.1142
    1CHOL    C129391   5.034   9.303   5.242  0.1080 -0.0713  0.1920
    1CHOL    C229392   4.927   8.922   5.098 -0.2904 -0.4155  0.1146
    1CHOL   ROH29393  17.575  19.980   6.767 -0.0989 -0.0765 -0.1137
    1CHOL    R129394  17.421  19.979   6.530  0.0114  0.0992 -0.1876
    1CHOL    R229395  17.529  20.031   6.281  0.2246 -0.1879 -0.1565
    1CHOL    R329396  17.417  19.792   6.218 -0.1636 -0.0171 -0.1154
    1CHOL    R429397  17.426  19.940   5.964  0.2518 -0.1469 -0.1771
    1CHOL    R529398  17.251  19.846   6.054  0.0315  0.2041 -0.2401
    1CHOL    C129399  17.261  19.662   5.720 -0.0956  0.0363 -0.1508
    1CHOL    C229400  17.321  19.716   5.299  0.0229  0.1069  0.1970
    1CHOL   ROH29401  14.261  14.081   6.233  0.1540  0.1028  0.0291
    1CHOL    R129402  14.355  14.109   5.968  0.1168  0.0863  0.0148
    1CHOL    R229403  14.426  13.892   5.812  0.1299  0.0787  0.0313
    1CHOL    R329404  14.249  14.001   5.637  0.0923  0.0315  0.0400
    1CHOL    R429405  14.419  13.828   5.472 -0.0477 -0.1407  0.0756
    1CHOL    R529406  14.377  14.040   5.438  0.0181 -0.1473 -0.0434
    1CHOL    C129407  14.249  13.894   5.110 -0.1863 -0.3132  0.1094
    1CHOL    C229408  14.488  13.675   4.948  0.2145 -0.1785 -0.0743
    1CHOL   ROH29409  15.838  19.780   2.995 -0.1715 -0.1430 -0.1777
    1CHOL    R129410  15.844  19.850   3.269 -0.0048 -0.0267 -0.2105
    1CHOL    R229411  15.618  19.930   3.406  0.0598 -0.0565 -0.0850
    1CHOL    R329412  15.689  19.729   3.575  0.2570  0.0401 -0.0515
    1CHOL    R429413  15.655  19.964   3.748  0.1330  0.0620 -0.1044
    1CHOL    R529414  15.831  19.835   3.737  0.2260  0.1898 -0.1202
    1CHOL    C129415  15.743  19.796   4.106  0.3599  0.2228 -0.0845
    1CHOL    C229416  15.540  19.779   4.390 -0.1071  0.2197 -0.2332
    1CHOL   ROH29417  14.911  21.500   5.944 -0.0263 -0.1200  0.1092
    1CHOL    R129418  14.905  21.484   5.662  0.0620 -0.0124  0.1013
    1CHOL    R229419  15.110  21.579   5.503  0.2108 -0.1525  0.2098
    1CHOL    R329420  15.105  21.327   5.402  0.0068 -0.1115  0.1186
    1CHOL    R429421  15.238  21.487   5.196 -0.0234 -0.1106  0.0997
    1CHOL    R529422  15.065  21.357   5.168 -0.1149 -0.0019  0.1535
    1CHOL    C129423  15.308  21.197   4.921 -0.3512 -0.0475 -0.0501
    1CHOL    C229424  15.243  21.163   4.568  0.0945 -0.3053  0.0648
    1CHOL   ROH29425  18.343  25.853   6.374  0.2561 -0.1535  0.1024
    1CHOL    R129426  18.301  25.865   6.094  0.1736 -0.2909  0.1087
    1CHOL    R229427  18.389  26.076   5.940 -0.2155 -0.1773  0.0401
    1CHOL    R329428  18.510  25.879   5.796  0.0828 -0.0105  0.0592
    1CHOL    R429429  18.507  26.112   5.617 -0.2775 -0.0343  0.0331
    1CHOL    R529430  18.431  25.912   5.572  0.0286 -0.1564  0.0575
    1CHOL    C129431  18.689  25.947   5.294 -0.0327  0.2088  0.0475
    1CHOL    C229432  18.848  26.220   5.216  0.0676  0.3230 -0.3575
    1CHOL   ROH29433  17.330   9.242   4.080 -0.0513  0.0383  0.2252
    1CHOL    R129434  17.211   9.009   4.188  0.0000 -0.0410  0.1116
    1CHOL    R229435  17.195   8.772   4.048  0.1145  0.0036  0.0223
    1CHOL    R329436  17.318   8.671   4.269  0.0942 -0.0339  0.0165
    1CHOL    R429437  17.174   8.443   4.153  0.0992 -0.0129 -0.0317
    1CHOL    R529438  17.160   8.515   4.359  0.0839 -0.0453 -0.0215
    1CHOL    C129439  17.277   8.157   4.422  0.0706 -0.0576 -0.0681
    1CHOL    C229440  17.474   7.782   4.515 -0.1246  0.0103  0.0141
    1CHOL   ROH29441  18.316  13.698   5.877 -0.1380  0.2428  0.0534
    1CHOL    R129442  18.199  13.702   5.619 -0.1211  0.2294  0.0460
    1CHOL    R229443  18.185  13.931   5.465 -0.0689  0.2116  0.0141
    1CHOL    R329444  18.310  13.775   5.280 -0.0873  0.1627  0.0428
    1CHOL    R429445  18.151  13.966   5.123 -0.0772  0.1426  0.0076
    1CHOL    R529446  18.147  13.749   5.106 -0.0944  0.1397  0.0527
    1CHOL    C129447  18.249  13.841   4.749 -0.0982  0.0578  0.0307
    1CHOL    C229448  18.012  13.924   4.483 -0.0984  0.2114  0.2390
    1CHOL   ROH29449  22.694  18.493   3.329  0.0027 -0.0897 -0.0120
    1CHOL    R129450  22.697  18.561   3.604 -0.0353 -0.0019 -0.0339
    1CHOL    R229451  22.480  18.522   3.769 -0.0565  0.0510 -0.0501
    1CHOL    R329452  22.660  18.385   3.920 -0.0745  0.1019  0.0188
    1CHOL    R429453  22.422  18.409   4.090 -0.1736 -0.0381 -0.1030
    1CHOL    R529454  22.625  18.468   4.142 -0.2298  0.0420  0.0167
    1CHOL    C129455  22.557  18.214   4.419 -0.2619 -0.0420 -0.0692
    1CHOL    C229456  22.588  18.449   4.732 -0.1143  0.0582 -0.1386
    1CHOL   ROH29457  13.036   9.204   3.249 -0.1661  0.0484  0.1117
    1CHOL    R129458  13.119   9.363   3.468 -0.1225  0.1130  0.0490
    1CHOL    R229459  12.941   9.499   3.629 -0.0988  0.0772  0.1069
    1CHOL    R329460  13.067   9.365   3.829  0.0374  0.1531  0.0720
    1CHOL    R429461  13.001   9.626   3.945 -0.2661  0.0405  0.1535
    1CHOL    R529462  13.198   9.532   3.940 -0.1593  0.2642  0.1380
    1CHOL    C129463  13.155   9.572   4.317 -0.2361  0.0904  0.1483
    1CHOL    C229464  12.951   9.701   4.662  0.1694  0.0739  0.0249
    1CHOL   ROH29465  11.526   0.594   3.848  0.2370  0.0618  0.1166
    1CHOL    R129466  11.372   0.544   4.079  0.0725  0.2388  0.0455
    1CHOL    R229467  11.412   0.323   4.240 -0.2912  0.1623  0.0336
    1CHOL    R329468  11.434   0.510   4.436 -0.1218  0.1080  0.0672
    1CHOL    R429469  11.306   0.280   4.567 -0.3285  0.1991  0.0265
    1CHOL    R529470  11.233   0.485   4.564 -0.1440  0.2664  0.0632
    1CHOL    C129471  11.265   0.431   4.941 -0.1914  0.1695  0.0535
    1CHOL    C229472  11.047   0.407   5.253  0.1474 -0.0268 -0.0662
    1CHOL   ROH29473  27.667  22.180   3.295  0.1549  0.1087 -0.0354
    1CHOL    R129474  27.566  22.357   3.492 -0.0572  0.1068 -0.1414
    1CHOL    R229475  27.299  22.363   3.564 -0.0688 -0.1565 -0.1595
    1CHOL    R329476  27.399  22.327   3.814 -0.0400  0.0989 -0.1331
    1CHOL    R429477  27.119  22.404   3.856 -0.0772 -0.0048 -0.1858
    1CHOL    R529478  27.294  22.498   3.945 -0.1192  0.1564 -0.2704
    1CHOL    C129479  27.108  22.393   4.261 -0.0545  0.3221 -0.1762
    1CHOL    C229480  27.130  22.212   4.681  0.0410 -0.0056 -0.0055
    1CHOL   ROH29481  10.641   5.530   5.109 -0.0475 -0.0703 -0.2626
    1CHOL    R129482  10.812   5.402   5.295 -0.1178  0.1347 -0.0558
    1CHOL    R229483  11.002   5.217   5.219 -0.2278 -0.1023  0.2430
    1CHOL    R329484  11.170   5.382   5.354 -0.1274  0.0225 -0.0327
    1CHOL    R429485  11.331   5.144   5.294 -0.1769 -0.0396  0.0811
    1CHOL    R529486  11.301   5.234   5.490 -0.0362  0.1488  0.0165
    1CHOL    C129487  11.681   5.256   5.465 -0.0531  0.1147 -0.2723
    1CHOL    C229488  11.894   4.977   5.434 -0.6435 -0.2522 -0.1264
    1CHOL   ROH29489  15.753  13.910   2.738 -0.1219  0.0020  0.0566
    1CHOL    R129490  15.703  14.003   3.000 -0.1116 -0.0124  0.0635
    1CHOL    R229491  15.478  13.932   3.144 -0.0911 -0.0438  0.0798
    1CHOL    R329492  15.660  13.856   3.330 -0.0665 -0.0271  0.0626
    1CHOL    R429493  15.403  13.847   3.470 -0.0219  0.2131  0.1632
    1CHOL    R529494  15.581  13.954   3.534  0.0644  0.1516  0.0277
    1CHOL    C129495  15.530  13.725   3.835  0.0419  0.3773  0.1955
    1CHOL    C229496  15.524  13.488   4.180 -0.0549 -0.0862 -0.0681
    1CHOL   ROH29497  17.163  13.630   2.358  0.0233  0.0512  0.0138
    1CHOL    R129498  17.078  13.623   2.628  0.0496 -0.0839  0.0184
    1CHOL    R229499  17.217  13.486   2.824  0.1586 -0.0435 -0.0318
    1CHOL    R329500  17.212  13.727   2.950  0.0015 -0.0833  0.0377
    1CHOL    R429501  17.143  13.532   3.158  0.2565 -0.2022  0.0114
    1CHOL    R529502  17.029  13.709   3.104  0.0801 -0.2856  0.1075
    1CHOL    C129503  17.094  13.784   3.472  0.1642 -0.3316  0.1018
    1CHOL    C229504  16.988  13.882   3.773  0.1961 -0.1555  0.0099
    1CHOL   ROH29505  13.693  11.492   6.160  0.1783 -0.1180 -0.1251
    1CHOL    R129506  13.717  11.501   5.878  0.1903  0.1493 -0.1166
    1CHOL    R229507  13.502  11.457   5.710  0.2700 -0.0383 -0.1706
    1CHOL    R329508  13.575  11.698   5.607 -0.0865  0.1582  0.0340
    1CHOL    R429509  13.374  11.595   5.420  0.3052 -0.1307 -0.2303
    1CHOL    R529510  13.575  11.664   5.370  0.2251  0.2837  0.0150
    1CHOL    C129511  13.368  11.901   5.154 -0.0097 -0.0003 -0.0722
    1CHOL    C229512  13.289  11.856   4.781 -0.0086 -0.6066  0.1090
    1CHOL   ROH29513  22.524  14.247   4.099  0.2691  0.2263 -0.2000
    1CHOL    R129514  22.252  14.320   4.071  0.2174 -0.0110 -0.3140
    1CHOL    R229515  22.141  14.535   4.205 -0.1669 -0.4556  0.0892
    1CHOL    R329516  22.066  14.611   3.955  0.0175  0.0661  0.1900
    1CHOL    R429517  21.896  14.768   4.134 -0.2747 -0.4754  0.3915
    1CHOL    R529518  21.829  14.641   3.970 -0.0200 -0.1488  0.0324
    1CHOL    C129519  21.683  14.975   3.858 -0.1638  0.0005  0.6623
    1CHOL    C229520  21.353  15.017   3.878 -0.0941  0.2434  0.0663
    1CHOL   ROH29521   6.830   3.098   6.798  0.1803  0.1020 -0.0814
    1CHOL    R129522   6.783   3.155   6.525  0.1376  0.0806 -0.0784
    1CHOL    R229523   6.827   2.971   6.324 -0.0804 -0.0001 -0.0523
    1CHOL    R329524   6.568   3.027   6.260 -0.0557  0.1985  0.0206
    1CHOL    R429525   6.679   2.899   6.020 -0.3116 -0.1780  0.1018
    1CHOL    R529526   6.577   3.092   6.030 -0.1066 -0.0613 -0.0553
    1CHOL    C129527   6.350   2.910   5.783 -0.4230 -0.0952  0.2601
    1CHOL    C229528   6.190   2.625   5.589  0.0916  0.1709  0.1187
    1CHOL   ROH29529  29.431  19.516   5.547 -0.1540  0.2409 -0.1571
    1CHOL    R129530  29.339  19.559   5.283 -0.1574  0.1707 -0.1678
    1CHOL    R229531  29.441  19.757   5.119 -0.2764  0.2363 -0.1634
    1CHOL    R329532  29.481  19.550   4.948 -0.1175  0.2572 -0.1533
    1CHOL    R429533  29.372  19.764   4.781 -0.6027  0.0525 -0.1006
    1CHOL    R529534  29.295  19.561   4.797 -0.2747 -0.0629  0.0167
    1CHOL    C129535  29.369  19.574   4.423 -0.6444 -0.0350 -0.0547
    1CHOL    C229536  29.412  19.261   4.203  0.1184  0.1518 -0.0429
    1CHOL   ROH29537   4.710  25.355   5.565  0.0370 -0.3778 -0.1891
    1CHOL    R129538   4.564  25.303   5.328 -0.1235 -0.1450 -0.1409
    1CHOL    R229539   4.308  25.400   5.287  0.0121  0.2493 -0.0524
    1CHOL    R329540   4.418  25.500   5.059  0.0909  0.0873 -0.0871
    1CHOL    R429541   4.130  25.488   5.004  0.1011  0.1221 -0.1481
    1CHOL    R529542   4.289  25.401   4.883  0.1092  0.0105 -0.0577
    1CHOL    C129543   4.129  25.633   4.625  0.2269 -0.1061 -0.2369
    1CHOL    C229544   4.035  25.845   4.229 -0.0147  0.1201  0.1935
    1CHOL   ROH29545  26.184   9.567   5.381 -0.1427  0.0856 -0.0624
    1CHOL    R129546  26.270   9.762   5.195 -0.0839 -0.0005 -0.1256
    1CHOL    R229547  26.290   9.711   4.925 -0.2177 -0.0564 -0.1248
    1CHOL    R329548  26.130   9.930   4.904 -0.0821  0.0434 -0.1014
    1CHOL    R429549  26.320   9.956   4.683 -0.3328 -0.2694 -0.3557
    1CHOL    R529550  26.277  10.105   4.836 -0.0372 -0.1183 -0.4213
    1CHOL    C129551  26.187  10.304   4.523 -0.2759 -0.2997 -0.4686
    1CHOL    C229552  26.323  10.692   4.441  0.1277 -0.2752  0.0391
    1CHOL   ROH29553  26.667  17.249   2.966 -0.0759  0.0849  0.0773
    1CHOL    R129554  26.799  17.316   3.207 -0.0582  0.0181  0.0873
    1CHOL    R229555  26.664  17.356   3.444 -0.0424 -0.0663  0.1113
    1CHOL    R329556  26.838  17.169   3.537 -0.0229 -0.0851  0.0376
    1CHOL    R429557  26.758  17.321   3.775  0.0296 -0.1307  0.0842
    1CHOL    R529558  26.962  17.282   3.708  0.0153 -0.1183  0.0328
    1CHOL    C129559  26.976  17.124   4.055  0.0891 -0.1858 -0.0011
    1CHOL    C229560  27.112  16.891   4.370 -0.0639  0.1979 -0.4214
    1CHOL   ROH29561  29.120  19.397   3.096  0.1073  0.1380  0.0696
    1CHOL    R129562  29.141  19.489   3.363  0.0725  0.1545  0.0670
    1CHOL    R229563  28.944  19.641   3.484  0.0526  0.1579  0.0323
    1CHOL    R329564  28.955  19.446   3.673  0.0317  0.1691  0.0456
    1CHOL    R429565  28.930  19.696   3.825  0.1326  0.1879  0.0310
    1CHOL    R529566  29.083  19.543   3.851  0.0944  0.1469  0.0139
    1CHOL    C129567  28.932  19.545   4.201  0.1587  0.2167  0.0417
    1CHOL    C229568  28.950  19.327   4.513 -0.0065 -0.1708  0.2587
    1CHOL   ROH29569   3.858   7.345   6.239 -0.1200  0.0945  0.0644
    1CHOL    R129570   3.819   7.273   5.969 -0.0451  0.0346  0.0696
    1CHOL    R229571   3.854   7.450   5.760 -0.1523  0.0351  0.0517
    1CHOL    R329572   4.021   7.257   5.666 -0.0077  0.1424  0.0889
    1CHOL    R429573   3.884   7.360   5.428 -0.3469 -0.2539  0.1121
    1CHOL    R529574   3.897   7.152   5.491 -0.0415 -0.1779  0.3052
    1CHOL    C129575   4.059   7.126   5.146 -0.3245 -0.3220  0.1826
    1CHOL    C229576   3.968   6.906   4.832 -0.3549 -0.0686 -0.3268
    1CHOL   ROH29577   5.260  10.233   3.770  0.2791  0.3263  0.0876
    1CHOL    R129578   5.050  10.352   3.918  0.1688  0.3319 -0.0727
    1CHOL    R229579   5.068  10.401   4.189 -0.1363  0.0924 -0.0081
    1CHOL    R329580   5.003  10.654   4.115  0.1123  0.1951  0.1241
    1CHOL    R429581   5.063  10.674   4.401 -0.1051 -0.0587  0.1874
    1CHOL    R529582   4.881  10.742   4.302  0.0257  0.1488  0.0892
    1CHOL    C129583   4.999  11.071   4.455  0.1463 -0.0505  0.4253
    1CHOL    C229584   5.019  11.388   4.674  0.1061 -0.1697  0.2140
    1CHOL   ROH29585  19.258   6.277   3.450  0.2381 -0.1313 -0.0116
    1CHOL    R129586  19.265   6.276   3.732 -0.0610  0.0224 -0.0033
    1CHOL    R229587  19.480   6.371   3.876 -0.0781 -0.1990  0.1681
    1CHOL    R329588  19.291   6.524   3.998  0.0087  0.1392 -0.1195
    1CHOL    R429589  19.531   6.558   4.163 -0.2327 -0.4387  0.3514
    1CHOL    R529590  19.333   6.496   4.232 -0.4930 -0.0594 -0.0520
    1CHOL    C129591  19.382   6.809   4.444 -0.2404 -0.2611  0.1878
    1CHOL    C229592  19.692   6.985   4.634 -0.1117  0.0225 -0.1831
    1CHOL   ROH29593  28.923  27.596   5.480  0.0207  0.0392  0.1321
    1CHOL    R129594  28.864  27.730   5.238 -0.0839  0.0029  0.1373
    1CHOL    R229595  28.706  27.957   5.228  0.0320  0.0872  0.1897
    1CHOL    R329596  28.920  28.061   5.098 -0.0052 -0.0650  0.0050
    1CHOL    R429597  28.697  28.238   5.027  0.1163  0.2661  0.4358
    1CHOL    R529598  28.831  28.137   4.889 -0.1802  0.2174  0.1793
    1CHOL    C129599  28.893  28.500   4.788  0.1324  0.2275  0.4057
    1CHOL    C229600  28.722  28.752   4.648  0.2258 -0.1494 -0.0910
    1CHOL   ROH29601  12.213   6.316   3.943  0.1698  0.3503  0.1463
    1CHOL    R129602  12.189   6.338   4.224  0.1283  0.1326  0.1600
    1CHOL    R229603  11.958   6.269   4.359  0.0892  0.0787  0.0661
    1CHOL    R329604  12.128   6.112   4.503  0.0286 -0.0749 -0.0299
    1CHOL    R429605  11.886   6.131   4.668  0.0863  0.0279  0.0427
    1CHOL    R529606  12.090   6.176   4.730  0.1330 -0.1223  0.0007
    1CHOL    C129607  12.003   5.903   4.982  0.0277 -0.1464 -0.0610
    1CHOL    C229608  11.984   5.560   5.178 -0.0038  0.0671 -0.2156
    1CHOL   ROH29609  22.180  13.189   2.714  0.2223  0.2982  0.0843
    1CHOL    R129610  22.107  13.276   2.973  0.1593  0.2208  0.0920
    1CHOL    R229611  22.131  13.115   3.196  0.0942  0.1521  0.0485
    1CHOL    R329612  22.274  13.325   3.293  0.0750  0.1168  0.1507
    1CHOL    R429613  22.180  13.184   3.531  0.0200  0.0396  0.0823
    1CHOL    R529614  22.153  13.395   3.487  0.0334  0.0544  0.1470
    1CHOL    C129615  22.343  13.420   3.817 -0.0412 -0.0582  0.1979
    1CHOL    C229616  22.213  13.457   4.128  0.0343 -0.1933  0.2030
    1CHOL   ROH29617  21.596  10.851   2.579 -0.2293  0.1348 -0.0654
    1CHOL    R129618  21.425  10.822   2.802 -0.0839 -0.0272  0.0259
    1CHOL    R229619  21.468  10.633   2.999  0.2094  0.0257  0.0135
    1CHOL    R329620  21.454  10.849   3.164  0.0779  0.0210  0.0090
    1CHOL    R429621  21.434  10.618   3.343  0.0019  0.0153 -0.0070
    1CHOL    R529622  21.296  10.786   3.332 -0.0162 -0.0043 -0.0889
    1CHOL    C129623  21.402  10.811   3.697 -0.2437  0.0054 -0.0230
    1CHOL    C229624  21.316  10.811   4.097  0.1474 -0.1167 -0.4103
    1CHOL   ROH29625  14.593  16.947   6.269  0.4214 -0.0075  0.2141
    1CHOL    R129626  14.652  17.040   6.008  0.3338 -0.0200  0.1903
    1CHOL    R229627  14.907  17.111   5.929  0.3378 -0.1887  0.0505
    1CHOL    R329628  14.861  16.932   5.730  0.0985 -0.1341  0.0570
    1CHOL    R429629  15.004  17.153   5.600  0.0982 -0.1774 -0.0188
    1CHOL    R529630  14.813  17.068   5.538  0.0105 -0.0801  0.1175
    1CHOL    C129631  15.016  17.010   5.221 -0.2659 -0.1213 -0.0529
    1CHOL    C229632  15.205  17.153   4.903 -0.0175  0.0042 -0.3733
    1CHOL   ROH29633  14.368  22.700   5.652  0.0256 -0.1220 -0.1943
    1CHOL    R129634  14.327  22.823   5.401 -0.0434 -0.0067 -0.1266
    1CHOL    R229635  14.385  23.088   5.354  0.1206 -0.0336 -0.0732
    1CHOL    R329636  14.533  22.986   5.149 -0.0824 -0.0714 -0.2008
    1CHOL    R429637  14.546  23.277   5.112  0.2842 -0.0601  0.0148
    1CHOL    R529638  14.484  23.129   4.964  0.0410  0.1316 -0.0758
    1CHOL    C129639  14.778  23.290   4.780  0.1884 -0.1108 -0.0537
    1CHOL    C229640  14.793  23.379   4.354 -0.1286 -0.0143  0.2395
    1CHOL   ROH29641  17.644  19.025   3.119 -0.0331  0.0871  0.0117
    1CHOL    R129642  17.680  19.117   3.384 -0.1135  0.0849  0.0231
    1CHOL    R229643  17.471  19.136   3.564 -0.1035 -0.2662  0.0730
    1CHOL    R329644  17.634  18.983   3.719  0.1618 -0.0552  0.0053
    1CHOL    R429645  17.485  19.150   3.909  0.1163 -0.1583  0.0601
    1CHOL    R529646  17.702  19.129   3.896  0.1297  0.0648 -0.0806
    1CHOL    C129647  17.646  19.014   4.256  0.4934  0.1042 -0.0110
    1CHOL    C229648  17.541  19.060   4.576  0.1307 -0.0364 -0.0730
    1CHOL   ROH29649  15.426  12.191   6.248  0.0069  0.0608  0.0475
    1CHOL    R129650  15.349  12.242   5.980 -0.0706 -0.0548  0.0479
    1CHOL    R229651  15.517  12.366   5.799 -0.2251  0.1174  0.0221
    1CHOL    R329652  15.465  12.145   5.649  0.0158  0.0409  0.0500
    1CHOL    R429653  15.474  12.365   5.456 -0.3834  0.0520  0.0417
    1CHOL    R529654  15.312  12.221   5.481 -0.1698 -0.1760  0.1194
    1CHOL    C129655  15.400  12.158   5.116 -0.2489 -0.0574  0.0793
    1CHOL    C229656  15.516  12.195   4.784  0.1699 -0.1179  0.0712
    1CHOL   ROH29657  19.990  12.217   2.629 -0.0734 -0.1058 -0.1224
    1CHOL    R129658  19.962  12.093   2.881 -0.0238 -0.0944 -0.1115
    1CHOL    R229659  20.162  12.097   3.072 -0.0419  0.0369 -0.0959
    1CHOL    R329660  19.965  12.198   3.230 -0.1114 -0.0557 -0.1225
    1CHOL    R429661  20.154  12.075   3.417 -0.0505  0.0806 -0.0932
    1CHOL    R529662  19.939  12.037   3.405 -0.0277 -0.0463 -0.1013
    1CHOL    C129663  19.964  12.157   3.766 -0.1215  0.0199 -0.1165
    1CHOL    C229664  20.159  12.230   4.087 -0.0697  0.0029  0.2119
    1CHOL   ROH29665  15.233  25.512   6.025 -0.0347 -0.2640  0.0561
    1CHOL    R129666  15.208  25.598   5.757 -0.0587 -0.2470  0.0641
    1CHOL    R229667  15.072  25.827   5.686 -0.0955 -0.2601  0.0881
    1CHOL    R329668  15.306  25.889   5.561 -0.1095 -0.2156  0.0829
    1CHOL    R429669  15.107  26.066   5.438 -0.1941 -0.4292 -0.0882
    1CHOL    R529670  15.242  25.931   5.334 -0.0944 -0.4272  0.0391
    1CHOL    C129671  15.346  26.262   5.177 -0.2640 -0.4856 -0.1956
    1CHOL    C229672  15.283  26.592   5.027 -0.1966  0.0076  0.2327
    1CHOL   ROH29673  16.012  14.771   5.842 -0.0652  0.3166  0.1408
    1CHOL    R129674  16.098  14.874   5.593  0.1154  0.1674  0.1414
    1CHOL    R229675  16.315  14.771   5.456 -0.0628 -0.2103  0.1425
    1CHOL    R329676  16.135  14.749   5.253 -0.1007  0.1031  0.1418
    1CHOL    R429677  16.380  14.848   5.125  0.0744 -0.3338  0.1409
    1CHOL    R529678  16.181  14.937   5.112  0.2327  0.0176  0.1376
    1CHOL    C129679  16.250  14.872   4.742  0.1203 -0.1114  0.1395
    1CHOL    C229680  16.194  14.990   4.309  0.2232 -0.2824 -0.1046
    1CHOL   ROH29681  10.004  23.015   4.222  0.1630  0.0417 -0.2533
    1CHOL    R129682  10.262  23.067   4.327  0.1264  0.3090 -0.2947
    1CHOL    R229683  10.483  22.916   4.259  0.1614  0.1736  0.1228
    1CHOL    R329684  10.588  23.157   4.193  0.1587  0.0309 -0.4048
    1CHOL    R429685  10.818  22.975   4.199  0.1645  0.0525  0.0207
    1CHOL    R529686  10.799  23.164   4.307  0.1473  0.2909 -0.3994
    1CHOL    C129687  11.112  23.236   4.101  0.1636 -0.1525 -0.5343
    1CHOL    C229688  11.567  23.066   4.141 -0.1034  0.1296 -0.1423
    1CHOL   ROH29689   5.938  22.012   2.776 -0.1819 -0.0271  0.0153
    1CHOL    R129690   6.026  21.849   2.990 -0.2327  0.0286  0.0788
    1CHOL    R229691   5.865  21.657   3.107 -0.1310 -0.2069 -0.1676
    1CHOL    R329692   6.074  21.493   3.049  0.1499  0.0744  0.0418
    1CHOL    R429693   5.925  21.353   3.259 -0.0169 -0.2451 -0.2874
    1CHOL    R529694   6.138  21.401   3.261 -0.0732  0.0000  0.0775
    1CHOL    C129695   6.156  21.022   3.294  0.3128 -0.0027 -0.1609
    1CHOL    C229696   6.306  20.911   3.598  0.1154 -0.1002 -0.0940
    1CHOL   ROH29697  20.771   9.123   5.763 -0.1136  0.0049 -0.1018
    1CHOL    R129698  20.663   9.116   5.502 -0.1183  0.0153 -0.1006
    1CHOL    R229699  20.786   9.237   5.286 -0.0464 -0.0973 -0.1243
    1CHOL    R329700  20.765   8.989   5.176 -0.1904 -0.1079 -0.0755
    1CHOL    R429701  20.799   9.169   4.948 -0.0238 -0.1798 -0.1068
    1CHOL    R529702  20.639   9.024   4.975 -0.1259 -0.0672 -0.1082
    1CHOL    C129703  20.788   8.898   4.647 -0.1444 -0.2364 -0.0516
    1CHOL    C229704  20.707   8.916   4.350 -0.0927  0.2014  0.1028
    1CHOL   ROH29705  23.655  12.005   2.933 -0.0026  0.0654 -0.0499
    1CHOL    R129706  23.701  12.046   3.209  0.0267  0.0386 -0.0511
    1CHOL    R229707  23.951  12.104   3.311  0.0085  0.1942 -0.0923
    1CHOL    R329708  23.822  12.318   3.419 -0.1185  0.0800 -0.0197
    1CHOL    R429709  24.055  12.276   3.592 -0.0620  0.1988 -0.0689
    1CHOL    R529710  23.847  12.289   3.656 -0.0601  0.0415 -0.0309
    1CHOL    C129711  23.995  12.577   3.857 -0.2221  0.0950  0.0127
    1CHOL    C229712  23.916  12.355   4.158 -0.0508  0.2636 -0.0354
    1CHOL   ROH29713  12.891  10.833   6.740  0.2812  0.1745 -0.0526
    1CHOL    R129714  12.775  10.808   6.483  0.1903  0.0749 -0.0021
    1CHOL    R229715  12.859  10.957   6.267  0.0826  0.0253 -0.0787
    1CHOL    R329716  12.888  10.713   6.150  0.0862 -0.0045 -0.0152
    1CHOL    R429717  12.897  10.903   5.927  0.1264 -0.0596 -0.0601
    1CHOL    R529718  12.766  10.731   5.945  0.1149 -0.0482 -0.0360
    1CHOL    C129719  12.946  10.643   5.620  0.1554 -0.1375  0.0100
    1CHOL    C229720  12.933  10.730   5.164  0.5138 -0.4592 -0.2469
    1CHOL   ROH29721   6.958  29.507   4.090  0.2002  0.2599  0.0907
    1CHOL    R129722   6.743  29.472   4.270  0.1638  0.1183  0.0196
    1CHOL    R229723   6.734  29.265   4.452  0.2087  0.0712 -0.0308
    1CHOL    R329724   6.700  29.466   4.632  0.0616  0.0155  0.0060
    1CHOL    R429725   6.551  29.239   4.744  0.0775 -0.0610 -0.1242
    1CHOL    R529726   6.474  29.440   4.707  0.0329 -0.0734 -0.1085
    1CHOL    C129727   6.412  29.414   5.083 -0.1365 -0.1905 -0.1442
    1CHOL    C229728   6.426  29.258   5.380 -0.0072 -0.0516 -0.3102
    1CHOL   ROH29729  16.220  23.459   6.256  0.1968  0.2827  0.0867
    1CHOL    R129730  16.317  23.342   6.017  0.0238  0.1965  0.0591
    1CHOL    R229731  16.386  23.491   5.795  0.0718  0.1339  0.0310
    1CHOL    R329732  16.622  23.359   5.819 -0.0282 -0.0575 -0.0426
    1CHOL    R429733  16.621  23.461   5.544  0.0334  0.0696  0.0038
    1CHOL    R529734  16.653  23.254   5.606 -0.1192  0.0162 -0.0927
    1CHOL    C129735  16.980  23.319   5.420 -0.0790 -0.1461 -0.0813
    1CHOL    C229736  17.081  23.508   5.160  0.3345 -0.1740  0.0886
    1CHOL   ROH29737  14.475  16.007   6.418 -0.1597 -0.1091 -0.0979
    1CHOL    R129738  14.516  15.950   6.144 -0.0567 -0.0052 -0.1047
    1CHOL    R229739  14.308  15.893   5.972  0.0028  0.1146 -0.2158
    1CHOL    R329740  14.416  16.096   5.826  0.1103  0.1487 -0.0864
    1CHOL    R429741  14.379  15.877   5.634  0.1335  0.2408 -0.1941
    1CHOL    R529742  14.564  15.987   5.672  0.1450  0.1807 -0.0739
    1CHOL    C129743  14.521  16.059   5.300  0.3101  0.3503 -0.0605
    1CHOL    C229744  14.642  16.054   4.830  0.0375 -0.1194 -0.2348
    1CHOL   ROH29745  14.172  17.127   2.721  0.0226  0.1506 -0.0595
    1CHOL    R129746  14.262  17.111   2.989  0.0811  0.1478 -0.0789
    1CHOL    R229747  14.274  17.330   3.156 -0.0535  0.1151 -0.0247
    1CHOL    R329748  14.122  17.175   3.319  0.0889 -0.0398 -0.0388
    1CHOL    R429749  14.196  17.406   3.484 -0.2584  0.0916 -0.0684
    1CHOL    R529750  14.225  17.196   3.535 -0.0086  0.1402 -0.0094
    1CHOL    C129751  14.007  17.305   3.828 -0.2441 -0.0677 -0.1069
    1CHOL    C229752  13.924  17.235   4.163 -0.2598  0.0573 -0.0289
    1CHOL   ROH29753  12.290  17.201   6.201  0.0584 -0.1389  0.0781
    1CHOL    R129754  12.289  17.331   5.949  0.0730 -0.0877  0.1042
    1CHOL    R229755  12.451  17.252   5.740  0.0439 -0.0839  0.0790
    1CHOL    R329756  12.215  17.239   5.605  0.0325 -0.0020  0.0899
    1CHOL    R429757  12.420  17.267   5.396  0.0510 -0.2918  0.0694
    1CHOL    R529758  12.243  17.393   5.423  0.1431 -0.1431 -0.0131
    1CHOL    C129759  12.181  17.264   5.069  0.0450 -0.3362  0.0736
    1CHOL    C229760  12.376  17.363   4.739 -0.0151  0.0493  0.0900
    1CHOL   ROH29761   8.658  10.340   4.064  0.1482 -0.1342 -0.0096
    1CHOL    R129762   8.620  10.505   4.291  0.1302 -0.1278 -0.0174
    1CHOL    R229763   8.491  10.417   4.519  0.0464 -0.0973 -0.0533
    1CHOL    R329764   8.719  10.500   4.641  0.0348 -0.1582  0.0093
    1CHOL    R429765   8.515  10.509   4.851 -0.0243 -0.0839 -0.0520
    1CHOL    R529766   8.647  10.672   4.792  0.0420 -0.1273 -0.0234
    1CHOL    C129767   8.743  10.639   5.160 -0.0768 -0.1327  0.0072
    1CHOL    C229768   8.877  10.478   5.451 -0.2077  0.1911 -0.1128
    1CHOL   ROH29769  29.763  14.556   4.989 -0.0731  0.1104 -0.0973
    1CHOL    R129770  29.761  14.523   4.708 -0.1316  0.0219 -0.0861
    1CHOL    R229771  29.528  14.531   4.559 -0.1272  0.2823 -0.0768
    1CHOL    R329772  29.663  14.721   4.419  0.1174  0.0578 -0.1453
    1CHOL    R429773  29.510  14.574   4.217 -0.0792  0.1888 -0.0913
    1CHOL    R529774  29.725  14.612   4.215 -0.0296 -0.0930 -0.1097
    1CHOL    C129775  29.626  14.778   3.886  0.1795 -0.0765 -0.1643
    1CHOL    C229776  29.599  14.659   3.479 -0.1058 -0.2403  0.0433
    1CHOL   ROH29777  18.223  17.221   6.260  0.2659 -0.0457 -0.0147
    1CHOL    R129778  18.119  17.335   6.023  0.1440 -0.1945 -0.0329
    1CHOL    R229779  18.253  17.530   5.881 -0.0877 -0.0337 -0.0348
    1CHOL    R329780  18.220  17.357   5.674  0.1497 -0.0942 -0.0251
    1CHOL    R429781  18.234  17.622   5.548 -0.3223 -0.0677 -0.0305
    1CHOL    R529782  18.076  17.474   5.522 -0.0830 -0.3338  0.0091
    1CHOL    C129783  18.191  17.512   5.160 -0.2359 -0.1434 -0.0197
    1CHOL    C229784  18.066  17.468   4.791 -0.1540  0.1625 -0.5839
    1CHOL   ROH29785  10.284  22.421   2.815 -0.1547 -0.2222  0.1445
    1CHOL    R129786  10.347  22.457   3.088  0.0672 -0.1688  0.0865
    1CHOL    R229787  10.208  22.331   3.291  0.2128 -0.1074  0.2250
    1CHOL    R329788  10.456  22.247   3.365  0.2608 -0.1204  0.0475
    1CHOL    R429789  10.290  22.209   3.604  0.4559 -0.0019  0.2025
    1CHOL    R529790  10.478  22.320   3.592  0.4649 -0.0362  0.0018
    1CHOL    C129791  10.570  22.059   3.855  0.6438  0.0488  0.0230
    1CHOL    C229792  10.407  21.983   4.142  0.0803 -0.1192  0.2241
    1CHOL   ROH29793  13.517   8.970   3.465  0.0546  0.0644  0.1631
    1CHOL    R129794  13.370   8.981   3.706  0.0277 -0.0429  0.1514
    1CHOL    R229795  13.460   8.865   3.940  0.0324 -0.0879  0.1266
    1CHOL    R329796  13.420   9.114   4.041 -0.0395 -0.1276  0.1950
    1CHOL    R429797  13.373   8.933   4.268 -0.1044 -0.2098  0.1161
    1CHOL    R529798  13.237   9.088   4.194 -0.0949 -0.2031  0.1149
    1CHOL    C129799  13.285   9.207   4.553 -0.2514 -0.3173  0.1739
    1CHOL    C229800  13.200   8.959   4.808  0.0867  0.0332 -0.0773
    1CHOL   ROH29801  20.365  17.696   6.282  0.1990 -0.0884 -0.0202
    1CHOL    R129802  20.357  17.872   6.060  0.3252 -0.0639 -0.0062
    1CHOL    R229803  20.531  17.850   5.847  0.1838 -0.2956 -0.0996
    1CHOL    R329804  20.302  17.843   5.701  0.0955  0.0303  0.0213
    1CHOL    R429805  20.512  17.904   5.506  0.0601 -0.1211 -0.0656
    1CHOL    R529806  20.329  18.017   5.539  0.2060  0.0734  0.0846
    1CHOL    C129807  20.286  17.929   5.171 -0.0955  0.2855  0.0680
    1CHOL    C229808  20.163  17.759   4.855  0.1164  0.1102  0.2950
    1CHOL   ROH29809   3.115   2.987   3.799  0.1137  0.0285  0.0277
    1CHOL    R129810   3.206   2.760   3.942 -0.0135  0.0138  0.0863
    1CHOL    R229811   3.469   2.676   3.934 -0.0524 -0.1124  0.1395
    1CHOL    R329812   3.449   2.693   4.205 -0.0813 -0.0480  0.1334
    1CHOL    R429813   3.682   2.521   4.158 -0.0279  0.0068  0.1988
    1CHOL    R529814   3.509   2.475   4.283 -0.0257 -0.0103  0.1957
    1CHOL    C129815   3.787   2.448   4.543 -0.0410  0.1371  0.2272
    1CHOL    C229816   3.877   2.020   4.620  0.2826 -0.1400  0.2709
    1CHOL   ROH29817   8.141   7.194   3.879 -0.0797 -0.0072  0.1439
    1CHOL    R129818   8.028   7.137   4.132 -0.0768  0.1462  0.1798
    1CHOL    R229819   8.176   7.034   4.341 -0.1643 -0.1046  0.1164
    1CHOL    R329820   8.078   7.249   4.475  0.2218  0.0365  0.1716
    1CHOL    R429821   8.164   7.063   4.685 -0.4749 -0.3393  0.1261
    1CHOL    R529822   7.967   7.155   4.665 -0.2255  0.1659 -0.0246
    1CHOL    C129823   8.065   7.282   5.011 -0.2947 -0.3434  0.1835
    1CHOL    C229824   8.222   7.330   5.373  0.0814  0.1678  0.1384
    1CHOL   ROH29825  14.322  18.364   2.687  0.0207  0.3004  0.0330
    1CHOL    R129826  14.176  18.344   2.928 -0.0243  0.1898 -0.0037
    1CHOL    R229827  14.256  18.182   3.138 -0.0512  0.1131 -0.0534
    1CHOL    R329828  14.236  18.412   3.281 -0.0976  0.0515  0.0362
    1CHOL    R429829  14.251  18.200   3.483 -0.0243 -0.0219 -0.0464
    1CHOL    R529830  14.098  18.354   3.468 -0.0663 -0.0563  0.0267
    1CHOL    C129831  14.230  18.427   3.818 -0.0522 -0.1542  0.0423
    1CHOL    C229832  14.268  18.397   4.222 -0.0036  0.1588  0.1064
    1CHOL   ROH29833  17.952  10.927   5.949 -0.1074  0.0429  0.0208
    1CHOL    R129834  17.950  11.005   5.677 -0.0620  0.0558  0.0243
    1CHOL    R229835  18.063  10.851   5.477 -0.0552  0.0506  0.0318
    1CHOL    R329836  17.817  10.875   5.365 -0.0363  0.0891  0.0002
    1CHOL    R429837  17.987  10.769   5.150 -0.0105  0.1316  0.0012
    1CHOL    R529838  17.860  10.947   5.140  0.0000  0.1402  0.0243
    1CHOL    C129839  17.711  10.744   4.854  0.0317  0.2158 -0.0458
    1CHOL    C229840  17.697  10.648   4.481 -0.2981 -0.2236 -0.1387
    1CHOL   ROH29841  18.646  19.142   2.972 -0.0140  0.4186 -0.0790
    1CHOL    R129842  18.731  19.092   3.238 -0.0143  0.2193 -0.1162
    1CHOL    R229843  18.732  19.288   3.432  0.0655  0.0950  0.0094
    1CHOL    R329844  18.583  19.107   3.570  0.0128  0.0566 -0.0971
    1CHOL    R429845  18.725  19.259   3.777  0.0381 -0.0887 -0.0062
    1CHOL    R529846  18.723  19.042   3.754 -0.0124 -0.0772 -0.1236
    1CHOL    C129847  18.581  19.073   4.107 -0.0269 -0.2326 -0.1154
    1CHOL    C229848  18.421  19.060   4.422  0.0287  0.0696 -0.1526
    1CHOL   ROH29849   8.679  19.315   2.879 -0.0392  0.1591  0.0660
    1CHOL    R129850   8.695  19.446   3.130 -0.3390  0.1326  0.0993
    1CHOL    R229851   8.494  19.430   3.319 -0.3123 -0.3538  0.0860
    1CHOL    R329852   8.697  19.348   3.480 -0.1391  0.0503  0.0749
    1CHOL    R429853   8.508  19.481   3.660 -0.3300 -0.2079  0.0647
    1CHOL    R529854   8.721  19.524   3.640 -0.4082  0.1497  0.0061
    1CHOL    C129855   8.706  19.434   4.011 -0.1777  0.2584  0.0419
    1CHOL    C229856   8.709  19.457   4.399 -0.5145 -0.2417  0.1015
    1CHOL   ROH29857  22.961   3.617   3.977 -0.0784  0.1301 -0.0623
    1CHOL    R129858  23.125   3.655   4.205  0.0038  0.0165 -0.1028
    1CHOL    R229859  23.022   3.697   4.457  0.0968  0.0487 -0.0707
    1CHOL    R329860  23.181   3.487   4.522 -0.0030 -0.0459 -0.1346
    1CHOL    R429861  23.169   3.649   4.766  0.1774 -0.0482 -0.1245
    1CHOL    R529862  23.350   3.581   4.664  0.1011 -0.1489 -0.1905
    1CHOL    C129863  23.405   3.424   5.007  0.1323 -0.1932 -0.2156
    1CHOL    C229864  23.433   3.444   5.418  0.2675 -0.0626  0.0504
    1CHOL   ROH29865  12.613  16.321   6.307  0.0331 -0.2504  0.0470
    1CHOL    R129866  12.563  16.452   6.061 -0.0577 -0.1898  0.0970
    1CHOL    R229867  12.765  16.519   5.885 -0.0970  0.0881  0.1578
    1CHOL    R329868  12.614  16.379   5.708  0.0683  0.0167  0.0724
    1CHOL    R429869  12.789  16.545   5.541 -0.0081  0.1984  0.1721
    1CHOL    R529870  12.571  16.534   5.531  0.0029  0.0305  0.1006
    1CHOL    C129871  12.660  16.429   5.175  0.1977  0.1953  0.1002
    1CHOL    C229872  12.616  16.457   4.740 -0.1653  0.0877  0.0253
    1CHOL   ROH29873   7.935  14.375   3.160 -0.0137 -0.1441  0.0467
    1CHOL    R129874   7.924  14.431   3.437  0.0246 -0.0534  0.0300
    1CHOL    R229875   7.686  14.466   3.572  0.0473  0.1122  0.0278
    1CHOL    R329876   7.786  14.271   3.733 -0.0469  0.1108  0.0847
    1CHOL    R429877   7.604  14.423   3.905 -0.0916  0.1535 -0.0010
    1CHOL    R529878   7.813  14.378   3.946 -0.1144  0.1245  0.0859
    1CHOL    C129879   7.650  14.215   4.250 -0.2609  0.1766  0.0356
    1CHOL    C229880   7.663  14.341   4.710 -0.0074  0.0880  0.4142
    1CHOL   ROH29881  15.594  16.065   6.283  0.0138  0.2138  0.1267
    1CHOL    R129882  15.506  16.091   6.015 -0.0091  0.2298  0.1357
    1CHOL    R229883  15.598  16.290   5.848  0.1102  0.1311  0.0854
    1CHOL    R329884  15.658  16.081   5.685 -0.0671  0.0584  0.1140
    1CHOL    R429885  15.606  16.305   5.502  0.3476  0.1383  0.0908
    1CHOL    R529886  15.512  16.108   5.497  0.0877  0.2623  0.0226
    1CHOL    C129887  15.668  16.117   5.148  0.3199  0.0727  0.1212
    1CHOL    C229888  15.659  16.094   4.790 -0.1202 -0.1266 -0.2311
    1CHOL   ROH29889   4.095  27.008   6.018  0.0945 -0.1187 -0.2827
    1CHOL    R129890   4.315  27.185   6.004  0.0584 -0.0658 -0.2007
    1CHOL    R229891   4.561  27.110   5.902  0.1239 -0.0184 -0.0783
    1CHOL    R329892   4.525  27.326   5.741  0.1463 -0.0458 -0.1192
    1CHOL    R429893   4.797  27.234   5.682  0.1004 -0.1450 -0.1755
    1CHOL    R529894   4.738  27.436   5.741  0.1807 -0.1135 -0.2065
    1CHOL    C129895   4.901  27.509   5.404  0.1072 -0.2447 -0.2711
    1CHOL    C229896   5.055  27.749   5.163 -0.1079  0.3014 -0.0221
    1CHOL   ROH29897  16.542  23.734   4.174  0.0749 -0.1149  0.0121
    1CHOL    R129898  16.323  23.584   4.275 -0.0019 -0.0849 -0.1087
    1CHOL    R229899  16.233  23.609   4.534  0.0483 -0.2904 -0.0710
    1CHOL    R329900  15.994  23.657   4.413  0.0610 -0.0265  0.0083
    1CHOL    R429901  15.924  23.583   4.688  0.0434 -0.4244 -0.1018
    1CHOL    R529902  15.847  23.493   4.505  0.0100 -0.1202 -0.2382
    1CHOL    C129903  15.521  23.613   4.663  0.0533 -0.2527 -0.0449
    1CHOL    C229904  15.174  23.553   4.640 -0.0561  0.0849 -0.0857
    1CHOL   ROH29905  16.158  11.328   2.998 -0.0015 -0.3005 -0.0553
    1CHOL    R129906  16.075  11.215   3.244 -0.0010 -0.2685 -0.0407
    1CHOL    R229907  16.210  11.258   3.481  0.0002 -0.2395 -0.0469
    1CHOL    R329908  15.966  11.339   3.569  0.0024 -0.2261 -0.0558
    1CHOL    R429909  16.123  11.299   3.813  0.0343 -0.0982 -0.0553
    1CHOL    R529910  15.929  11.210   3.768  0.0381 -0.1392  0.0064
    1CHOL    C129911  15.843  11.398   4.089  0.0547 -0.0031 -0.0690
    1CHOL    C229912  15.854  11.448   4.412  0.0663  0.3203 -0.0382
    1CHOL   ROH29913  14.861  12.162   2.856  0.0496 -0.1132  0.0806
    1CHOL    R129914  14.875  12.280   3.113 -0.2222 -0.0920  0.0857
    1CHOL    R229915  14.695  12.221   3.314 -0.1256 -0.4628  0.0623
    1CHOL    R329916  14.921  12.165   3.455 -0.0293 -0.0074  0.0880
    1CHOL    R429917  14.707  12.169   3.655 -0.0548 -0.3977  0.0696
    1CHOL    R529918  14.893  12.283   3.661 -0.2766 -0.0358  0.0708
    1CHOL    C129919  14.926  12.087   3.987  0.0772  0.0681  0.0981
    1CHOL    C229920  15.071  11.996   4.282  0.1602 -0.3009 -0.1761
    1CHOL   ROH29921   6.937   9.366   6.273 -0.0657  0.1454  0.0370
    1CHOL    R129922   6.721   9.257   6.125 -0.0205  0.0420  0.0472
    1CHOL    R229923   6.677   9.319   5.859 -0.0659  0.0269  0.0508
    1CHOL    R329924   6.681   9.048   5.830  0.0662  0.0292  0.0442
    1CHOL    R429925   6.650   9.153   5.557  0.1209  0.0238  0.0360
    1CHOL    R529926   6.523   9.005   5.655  0.1502 -0.0362 -0.0162
    1CHOL    C129927   6.638   8.802   5.354  0.3535  0.0247  0.0207
    1CHOL    C229928   6.760   8.773   4.958  0.0541  0.0503  0.0862
    1CHOL   ROH29929  13.790  20.396   5.920 -0.0053  0.0083  0.1183
    1CHOL    R129930  13.824  20.539   5.678  0.1292  0.1230  0.2060
    1CHOL    R229931  14.023  20.479   5.496  0.0279  0.0006  0.1347
    1CHOL    R329932  13.815  20.463   5.322 -0.0202  0.3654  0.1583
    1CHOL    R429933  14.051  20.506   5.153  0.0381 -0.0534  0.1314
    1CHOL    R529934  13.867  20.624   5.152  0.2465  0.2708  0.1500
    1CHOL    C129935  13.871  20.508   4.789 -0.0004  0.2579  0.1511
    1CHOL    C229936  14.119  20.637   4.649  0.2008 -0.1704  0.2558
    1CHOL   ROH29937  10.235   7.584   3.665  0.1681 -0.0423 -0.0336
    1CHOL    R129938  10.137   7.704   3.902  0.1135 -0.0634 -0.0458
    1CHOL    R229939  10.043   7.556   4.116  0.0530 -0.0826 -0.0852
    1CHOL    R329940  10.224   7.702   4.256  0.0231 -0.1044 -0.0239
    1CHOL    R429941  10.004   7.655   4.444 -0.0720 -0.0293 -0.1156
    1CHOL    R529942  10.091   7.848   4.391 -0.0033 -0.0560 -0.1035
    1CHOL    C129943  10.152   7.851   4.767 -0.1722 -0.0191 -0.0760
    1CHOL    C229944  10.110   7.806   5.150  0.4241  0.3112  0.3378
    1CHOL   ROH29945  15.616  21.301   3.115  0.2583  0.3181 -0.0488
    1CHOL    R129946  15.634  21.420   3.371  0.1097  0.3443 -0.0508
    1CHOL    R229947  15.432  21.577   3.476 -0.0473  0.1718 -0.0921
    1CHOL    R329948  15.448  21.403   3.684  0.0706  0.1936 -0.0819
    1CHOL    R429949  15.290  21.628   3.787 -0.1106  0.0792 -0.1059
    1CHOL    R529950  15.470  21.543   3.878 -0.0520  0.2203 -0.0869
    1CHOL    C129951  15.222  21.493   4.164 -0.0369  0.0441 -0.1045
    1CHOL    C229952  14.902  21.504   4.488 -0.0247  0.0658 -0.4141
    1CHOL   ROH29953  11.147  10.365   3.390 -0.2359  0.0523  0.0921
    1CHOL    R129954  11.272  10.461   3.625 -0.1140 -0.0196  0.0559
    1CHOL    R229955  11.139  10.616   3.812  0.0279  0.0540  0.0958
    1CHOL    R329956  11.224  10.423   3.984 -0.0289  0.0047  0.0699
    1CHOL    R429957  11.207  10.667   4.147 -0.0830 -0.0405  0.1323
    1CHOL    R529958  11.380  10.535   4.127 -0.0768 -0.0343  0.1528
    1CHOL    C129959  11.326  10.516   4.504 -0.2007 -0.1405  0.1292
    1CHOL    C229960  11.498  10.556   4.850 -0.0379 -0.0937 -0.0044
    1CHOL   ROH29961   3.632   4.485   4.071 -0.0465 -0.0736  0.0289
    1CHOL    R129962   3.461   4.271   4.143 -0.1502 -0.0584 -0.1698
    1CHOL    R229963   3.298   4.279   4.366 -0.0710 -0.2262 -0.1056
    1CHOL    R329964   3.104   4.220   4.186 -0.1665  0.1042 -0.1117
    1CHOL    R429965   3.008   4.107   4.439  0.0207 -0.4604 -0.2916
    1CHOL    R529966   3.028   4.002   4.249 -0.0679 -0.0513 -0.5295
    1CHOL    C129967   2.655   3.951   4.312 -0.0158 -0.2862 -0.4052
    1CHOL    C229968   2.323   4.037   4.431 -0.0407 -0.2019 -0.1224
    1CHOL   ROH29969  13.551  14.232   6.336 -0.0737 -0.2344  0.1675
    1CHOL    R129970  13.369  14.195   6.122 -0.0191 -0.1822  0.1128
    1CHOL    R229971  13.393  14.329   5.882 -0.0275 -0.0355  0.1938
    1CHOL    R329972  13.386  14.077   5.778  0.0893  0.0222  0.0485
    1CHOL    R429973  13.345  14.254   5.548 -0.3376  0.1240  0.2017
    1CHOL    R529974  13.218  14.088   5.608 -0.1135 -0.0319  0.2456
    1CHOL    C129975  13.312  13.975   5.255 -0.4081  0.2701  0.0699
    1CHOL    C229976  13.435  13.965   4.842  0.2520 -0.1621  0.1698
    1CHOL   ROH29977  16.736  12.599   6.225 -0.2774  0.0246 -0.1305
    1CHOL    R129978  16.710  12.476   5.971 -0.2871  0.1097 -0.1705
    1CHOL    R229979  16.529  12.563   5.782 -0.2507  0.2108 -0.1579
    1CHOL    R329980  16.750  12.576   5.624 -0.2352  0.2088 -0.1359
    1CHOL    R429981  16.528  12.532   5.437 -0.1945  0.0229 -0.1414
    1CHOL    R529982  16.710  12.413   5.452 -0.1526  0.0997 -0.0532
    1CHOL    C129983  16.735  12.526   5.089 -0.1476 -0.0879 -0.1117
    1CHOL    C229984  16.449  12.780   4.855 -0.1976  0.0520  0.1938
    1CHOL   ROH29985  12.157  14.152   6.588  0.0629  0.0622 -0.0528
    1CHOL    R129986  12.285  14.072   6.349  0.0849  0.0668 -0.0427
    1CHOL    R229987  12.301  13.807   6.271  0.2528  0.0518  0.0445
    1CHOL    R329988  12.189  13.902   6.042  0.1567 -0.1016  0.0278
    1CHOL    R429989  12.378  13.696   5.953  0.2127 -0.0715  0.0782
    1CHOL    R529990  12.369  13.903   5.884  0.1154 -0.1087 -0.0188
    1CHOL    C129991  12.318  13.720   5.553  0.1002 -0.2879  0.0817
    1CHOL    C229992  12.344  13.783   5.137 -0.0306 -0.0477  0.3178
    1CHOL   ROH29993  22.384  29.442   4.437 -0.1191 -0.0437 -0.0259
    1CHOL    R129994  22.435  29.576   4.681 -0.1669  0.0181 -0.0501
    1CHOL    R229995  22.654  29.520   4.838 -0.1779  0.0804 -0.0096
    1CHOL    R329996  22.699  29.787   4.816 -0.2090  0.0827 -0.0650
    1CHOL    R429997  22.873  29.700   5.036 -0.3080  0.1745  0.0498
    1CHOL    R529998  22.727  29.862   5.042 -0.3357  0.1535 -0.0730
    1CHOL    C129999  23.043  30.057   5.129 -0.4122  0.2281  0.0319
    1CHOL    C230000  23.390  30.036   5.396 -0.4748  0.1721 -0.2824
    1CHOL   ROH30001  21.205  14.733   5.820  0.1077  0.0078 -0.0546
    1CHOL    R130002  21.178  14.818   5.552  0.1526  0.0401 -0.0489
    1CHOL    R230003  21.331  15.022   5.444  0.1637  0.0588  0.0029
    1CHOL    R330004  21.391  14.834   5.256  0.2034  0.0836 -0.0090
    1CHOL    R430005  21.413  15.090   5.115 -0.2193  0.0782 -0.0889
    1CHOL    R530006  21.293  14.919   5.055 -0.0801 -0.0739  0.0620
    1CHOL    C130007  21.516  14.955   4.748 -0.4049  0.1130 -0.1537
    1CHOL    C230008  21.743  15.163   4.426  0.0053 -0.1927  0.2369
    1CHOL   ROH30009  23.947   1.462   4.797  0.1278  0.2111 -0.1210
    1CHOL    R130010  23.772   1.642   4.928 -0.0429  0.0322 -0.1040
    1CHOL    R230011  23.514   1.572   5.000  0.0847 -0.2770  0.0502
    1CHOL    R330012  23.595   1.654   5.246  0.0992 -0.0752 -0.0216
    1CHOL    R430013  23.303   1.635   5.266  0.1297 -0.3940  0.1125
    1CHOL    R530014  23.426   1.808   5.315 -0.0439 -0.2337 -0.0184
    1CHOL    C130015  23.256   1.749   5.652  0.1674 -0.2727  0.0816
    1CHOL    C230016  23.009   1.491   5.829  0.2096  0.2604  0.0860
    1CHOL   ROH30017  16.154  15.224   6.050  0.3749 -0.0657 -0.0100
    1CHOL    R130018  16.199  15.332   5.792  0.2766 -0.0248 -0.0100
    1CHOL    R230019  16.447  15.331   5.672  0.2134 -0.0829 -0.1390
    1CHOL    R330020  16.313  15.209   5.470  0.0658  0.0074 -0.0964
    1CHOL    R430021  16.492  15.398   5.336  0.2012 -0.1616 -0.1569
    1CHOL    R530022  16.276  15.382   5.309  0.1822  0.0191 -0.1101
    1CHOL    C130023  16.392  15.322   4.950  0.0578 -0.1245 -0.1270
    1CHOL    C230024  16.393  15.339   4.580 -0.2705 -0.3827 -0.2743
    1CHOL   ROH30025  21.310  17.546   6.289  0.0832 -0.1084 -0.0639
    1CHOL    R130026  21.128  17.507   6.075  0.0591 -0.0420 -0.0556
    1CHOL    R230027  21.019  17.717   5.933  0.0769  0.0001 -0.0063
    1CHOL    R330028  21.119  17.582   5.719  0.0389  0.0260 -0.0405
    1CHOL    R430029  20.965  17.804   5.603 -0.1688 -0.0906  0.0091
    1CHOL    R530030  20.944  17.592   5.556 -0.0610 -0.1135  0.0584
    1CHOL    C130031  21.028  17.728   5.210 -0.3477 -0.1194 -0.0136
    1CHOL    C230032  21.213  17.988   5.019  0.0185  0.0121 -0.0033
    1CHOL   ROH30033  16.644  23.153   6.305  0.0896  0.1536 -0.0109
    1CHOL    R130034  16.658  22.923   6.141 -0.0114  0.1068  0.0448
    1CHOL    R230035  16.518  22.901   5.904  0.0185  0.1312  0.0264
    1CHOL    R330036  16.764  22.847   5.801  0.0033 -0.0327  0.0807
    1CHOL    R430037  16.576  22.750   5.598 -0.0172  0.0277  0.0703
    1CHOL    R530038  16.738  22.636   5.691 -0.0973 -0.0429  0.1235
    1CHOL    C130039  16.841  22.611   5.324 -0.0487 -0.1847  0.1468
    1CHOL    C230040  16.808  22.501   4.919 -0.1452 -0.0575 -0.4229
    1CHOL   ROH30041   5.257  16.502   2.526 -0.0517  0.1598 -0.0422
    1CHOL    R130042   5.165  16.478   2.793  0.2241  0.0372  0.0428
    1CHOL    R230043   5.323  16.539   3.011  0.3330  0.2752 -0.1029
    1CHOL    R330044   5.114  16.701   3.076  0.1585 -0.0219  0.0783
    1CHOL    R430045   5.268  16.674   3.324  0.5455  0.3891 -0.1144
    1CHOL    R530046   5.055  16.634   3.298  0.5739  0.0257  0.2042
    1CHOL    C130047   5.040  16.904   3.568  0.5057  0.1747  0.0494
    1CHOL    C230048   4.764  17.244   3.804  0.1365 -0.0658 -0.0435
    1CHOL   ROH30049   2.556  14.337   3.930 -0.1011 -0.1334 -0.1719
    1CHOL    R130050   2.325  14.501   3.935 -0.0585 -0.0758 -0.1031
    1CHOL    R230051   2.071  14.399   3.965 -0.0908 -0.0280 -0.2144
    1CHOL    R330052   2.059  14.575   4.172 -0.0793 -0.1615 -0.1002
    1CHOL    R430053   1.779  14.509   4.114 -0.0973  0.1240 -0.3400
    1CHOL    R530054   1.866  14.709   4.125  0.0705  0.0410 -0.1414
    1CHOL    C130055   1.598  14.739   4.395 -0.0902  0.0887 -0.3058
    1CHOL    C230056   1.220  14.648   4.534 -0.0417 -0.0153 -0.1394
    1CHOL   ROH30057  13.243  19.407   5.863 -0.1313  0.2226  0.0131
    1CHOL    R130058  13.367  19.555   5.655  0.0324  0.1040  0.0277
    1CHOL    R230059  13.623  19.501   5.568  0.0156 -0.0982  0.1008
    1CHOL    R330060  13.502  19.485   5.325  0.0663 -0.0376  0.0713
    1CHOL    R430061  13.771  19.586   5.267  0.0782 -0.0200  0.1538
    1CHOL    R530062  13.582  19.676   5.205  0.0896 -0.0057  0.1376
    1CHOL    C130063  13.743  19.620   4.864  0.1608  0.0849  0.1563
    1CHOL    C230064  13.911  19.928   4.538  0.1341 -0.0917 -0.1517
    1CHOL   ROH30065  19.937   5.721   3.135  0.0216  0.2710  0.1063
    1CHOL    R130066  19.949   5.530   3.345  0.1154  0.1547 -0.0048
    1CHOL    R230067  20.187   5.429   3.440  0.1733  0.3056  0.0149
    1CHOL    R330068  20.090   5.514   3.680  0.0166  0.0753  0.0335
    1CHOL    R430069  20.300   5.322   3.749  0.1726  0.2317 -0.0113
    1CHOL    R530070  20.094   5.318   3.818  0.1535 -0.0017 -0.0794
    1CHOL    C130071  20.275   5.339   4.153  0.0272 -0.0284 -0.0093
    1CHOL    C230072  19.982   5.316   4.416 -0.1719 -0.0499 -0.0265
    1CHOL   ROH30073  17.406  17.792   2.920  0.0793  0.0520  0.1152
    1CHOL    R130074  17.393  17.632   3.153  0.0391  0.0238  0.0947
    1CHOL    R230075  17.616  17.565   3.300  0.0193 -0.0368  0.0946
    1CHOL    R330076  17.474  17.672   3.506  0.0325 -0.0348  0.1029
    1CHOL    R430077  17.689  17.519   3.635  0.1841  0.1650  0.0868
    1CHOL    R530078  17.475  17.501   3.674  0.2108  0.0420  0.1814
    1CHOL    C130079  17.597  17.593   4.023  0.2930  0.2827  0.0899
    1CHOL    C230080  17.597  17.409   4.431  0.0554 -0.1287  0.1666
    1CHOL   ROH30081  20.818  12.595   2.776 -0.1757  0.1604 -0.0021
    1CHOL    R130082  20.728  12.637   3.041 -0.2060  0.3309 -0.0398
    1CHOL    R230083  20.878  12.569   3.262 -0.4702 -0.0483  0.0235
    1CHOL    R330084  20.838  12.829   3.330  0.0945  0.0381  0.0405
    1CHOL    R430085  20.886  12.692   3.585 -0.5770 -0.1564  0.0674
    1CHOL    R530086  20.715  12.818   3.536 -0.1993  0.2890 -0.1199
    1CHOL    C130087  20.853  13.008   3.837 -0.1084 -0.1387  0.1090
    1CHOL    C230088  20.824  13.322   4.000  0.2028 -0.4410  0.0772
    1CHOL   ROH30089  19.861  21.553   5.140 -0.0018  0.0391  0.0494
    1CHOL    R130090  19.816  21.297   5.027 -0.0334  0.0801 -0.0343
    1CHOL    R230091  19.790  21.069   5.180 -0.0090  0.0262 -0.1108
    1CHOL    R330092  19.556  21.043   5.044 -0.0374  0.0828 -0.0744
    1CHOL    R430093  19.653  20.768   5.080 -0.0038  0.0706 -0.2537
    1CHOL    R530094  19.597  20.862   4.891 -0.0544  0.1755 -0.1876
    1CHOL    C130095  19.354  20.568   4.893 -0.0274  0.1514 -0.3022
    1CHOL    C230096  19.283  20.233   4.655  0.0960  0.3901  0.0508
    1CHOL   ROH30097  16.295  14.760   2.440 -0.1230 -0.1119 -0.0833
    1CHOL    R130098  16.242  14.863   2.698 -0.3099 -0.1259 -0.1150
    1CHOL    R230099  16.090  14.728   2.885 -0.0713 -0.3392 -0.0757
    1CHOL    R330100  16.309  14.764   3.042 -0.1358  0.0954 -0.0841
    1CHOL    R430101  16.084  14.755   3.229 -0.1192 -0.2933 -0.0800
    1CHOL    R530102  16.235  14.912   3.215 -0.4110 -0.0143 -0.1076
    1CHOL    C130103  16.286  14.804   3.577 -0.2062  0.1407 -0.0905
    1CHOL    C230104  16.579  14.835   3.941  0.2529 -0.2127  0.0269
    1CHOL   ROH30105   7.313   5.335   3.955  0.0146  0.2790 -0.1720
    1CHOL    R130106   7.364   5.538   4.145  0.0241  0.2244 -0.1156
    1CHOL    R230107   7.300   5.511   4.412  0.0329  0.1493 -0.1211
    1CHOL    R330108   7.562   5.573   4.448  0.0353  0.1347 -0.1128
    1CHOL    R430109   7.450   5.566   4.719  0.0155  0.1876 -0.1194
    1CHOL    R530110   7.562   5.730   4.629  0.0346  0.1643 -0.1383
    1CHOL    C130111   7.783   5.656   4.931  0.0074  0.1961 -0.1100
    1CHOL    C230112   7.996   5.449   5.282  0.2451 -0.3567 -0.1956
    1CHOL   ROH30113  11.291  15.592   2.782  0.1949  0.0175  0.0550
    1CHOL    R130114  11.191  15.623   3.045  0.0963  0.0052  0.0181
    1CHOL    R230115  11.267  15.458   3.253  0.1250  0.0855  0.0706
    1CHOL    R330116  11.328  15.694   3.374 -0.0483  0.1418  0.0488
    1CHOL    R430117  11.302  15.502   3.594  0.2365  0.1116  0.0558
    1CHOL    R530118  11.199  15.693   3.576  0.0443  0.0119  0.1074
    1CHOL    C130119  11.381  15.748   3.907  0.1404  0.1791  0.0265
    1CHOL    C230120  11.393  15.867   4.220  0.1164 -0.3206  0.2890
    1CHOL   ROH30121  15.906  18.847   6.657 -0.1564 -0.2620 -0.0132
    1CHOL    R130122  15.915  18.880   6.376 -0.2360 -0.2451 -0.0141
    1CHOL    R230123  16.149  18.855   6.231 -0.2235  0.0498 -0.0463
    1CHOL    R330124  16.003  18.675   6.088 -0.0200 -0.1292 -0.0295
    1CHOL    R430125  16.141  18.836   5.886 -0.1087 -0.0687 -0.0432
    1CHOL    R530126  15.927  18.798   5.898 -0.0777 -0.2613 -0.0916
    1CHOL    C130127  16.000  18.656   5.551  0.1498 -0.3058 -0.0252
    1CHOL    C230128  15.992  18.713   5.170 -0.2662  0.1367 -0.0806
    1CHOL   ROH30129   4.781  28.658   3.836  0.0563 -0.2897 -0.2045
    1CHOL    R130130   4.837  28.416   3.972 -0.0863 -0.2937 -0.1533
    1CHOL    R230131   4.770  28.376   4.237  0.0902 -0.1151 -0.0814
    1CHOL    R330132   4.646  28.156   4.139 -0.2242 -0.0251  0.1116
    1CHOL    R430133   4.756  28.070   4.397  0.2873 -0.1640 -0.1519
    1CHOL    R530134   4.787  27.973   4.204 -0.1712 -0.1125 -0.2513
    1CHOL    C130135   4.630  27.684   4.397  0.1062 -0.1031 -0.0116
    1CHOL    C230136   4.719  27.292   4.326 -0.0241  0.1115  0.1354
    1CHOL   ROH30137  14.656  12.839   6.284  0.1560  0.0325  0.1437
    1CHOL    R130138  14.726  12.859   6.010  0.0973  0.0691  0.1316
    1CHOL    R230139  14.640  12.677   5.821  0.2520 -0.0392  0.1654
    1CHOL    R330140  14.549  12.900   5.695  0.0123 -0.1448  0.1511
    1CHOL    R430141  14.615  12.713   5.478  0.4258 -0.0052  0.1566
    1CHOL    R530142  14.688  12.918   5.500  0.1140  0.0954  0.2456
    1CHOL    C130143  14.516  12.943   5.160  0.3006 -0.0844  0.1382
    1CHOL    C230144  14.429  12.991   4.712  0.0081  0.1174  0.0712
    1CHOL   ROH30145  12.210  19.555   6.064 -0.2542 -0.0649 -0.0805
    1CHOL    R130146  12.170  19.431   5.813 -0.0839  0.0439 -0.1616
    1CHOL    R230147  12.226  19.557   5.573  0.1482  0.1197 -0.0671
    1CHOL    R330148  12.376  19.335   5.529  0.1225  0.0931 -0.0291
    1CHOL    R430149  12.249  19.392   5.271  0.1454  0.0763 -0.0439
    1CHOL    R530150  12.243  19.203   5.379  0.1144  0.0906 -0.0196
    1CHOL    C130151  12.403  19.087   5.052  0.1189  0.0267  0.0049
    1CHOL    C230152  12.404  18.780   4.808  0.2227  0.0306  0.2309
    1CHOL   ROH30153  14.721  10.040   6.241  0.3241  0.0545 -0.0500
    1CHOL    R130154  14.780   9.942   5.982  0.2217  0.1202 -0.0980
    1CHOL    R230155  14.589   9.827   5.820  0.1910  0.0182  0.0105
    1CHOL    R330156  14.673  10.014   5.642 -0.0379  0.0916 -0.0227
    1CHOL    R430157  14.543   9.809   5.478  0.0796 -0.0238  0.0274
    1CHOL    R530158  14.745   9.888   5.452  0.0019  0.1521 -0.0489
    1CHOL    C130159  14.596   9.975   5.111 -0.2016  0.0202  0.0062
    1CHOL    C230160  14.446   9.952   4.691  0.1400  0.0060 -0.2266
    1CHOL   ROH30161  21.845  11.268   2.745  0.0296 -0.1897  0.0304
    1CHOL    R130162  21.787  11.160   3.000 -0.0019 -0.1326  0.0473
    1CHOL    R230163  21.888  11.267   3.234 -0.0219 -0.0873  0.0352
    1CHOL    R330164  21.626  11.275   3.306 -0.0277 -0.0614  0.0064
    1CHOL    R430165  21.772  11.238   3.558 -0.0553  0.0119  0.0323
    1CHOL    R530166  21.609  11.114   3.483 -0.0486 -0.0067  0.0535
    1CHOL    C130167  21.459  11.229   3.815 -0.0793  0.0952  0.0035
    1CHOL    C230168  21.342  11.317   4.224  0.1476  0.3184  0.0248
    1CHOL   ROH30169  11.958   9.162   3.277 -0.0350  0.0591 -0.0327
    1CHOL    R130170  12.007   9.298   3.520 -0.0787  0.0448 -0.0159
    1CHOL    R230171  11.882   9.230   3.756 -0.0829 -0.0023 -0.0318
    1CHOL    R330172  12.137   9.213   3.849 -0.0868  0.0384 -0.0144
    1CHOL    R430173  11.968   9.159   4.083 -0.0954  0.1979  0.0150
    1CHOL    R530174  12.127   9.309   4.069 -0.0849  0.1769 -0.0751
    1CHOL    C130175  12.258   9.102   4.361 -0.1074  0.3526  0.0586
    1CHOL    C230176  12.324   8.903   4.681  0.0178  0.1478  0.0036
    1CHOL   ROH30177  24.983  15.566   3.004 -0.0797 -0.1910  0.1212
    1CHOL    R130178  24.861  15.777   3.147  0.1478  0.0024  0.0335
    1CHOL    R230179  24.730  15.737   3.387 -0.1798  0.1896 -0.1136
    1CHOL    R330180  24.900  15.931   3.475  0.0797 -0.1360  0.1064
    1CHOL    R430181  24.693  15.913   3.683 -0.1383  0.1493 -0.0844
    1CHOL    R530182  24.756  16.093   3.577  0.2708  0.0782  0.0352
    1CHOL    C130183  24.831  16.197   3.937  0.1280 -0.1795  0.1390
    1CHOL    C230184  24.910  16.259   4.288  0.1170  0.0867  0.1443
    1CHOL   ROH30185  13.979  10.053   2.924  0.1117 -0.1113 -0.0081
    1CHOL    R130186  13.979   9.952   3.189  0.2089 -0.1392 -0.0186
    1CHOL    R230187  14.131  10.065   3.390  0.2404 -0.1259 -0.0496
    1CHOL    R330188  13.892  10.078   3.519  0.2741 -0.1939  0.0192
    1CHOL    R430189  14.091  10.062   3.733  0.3366 -0.1950 -0.0393
    1CHOL    R530190  13.918   9.932   3.707  0.3538 -0.2222 -0.0143
    1CHOL    C130191  13.844  10.072   4.054  0.4245 -0.2993  0.0316
    1CHOL    C230192  13.823  10.328   4.380 -0.1569  0.1228  0.2751
    1CHOL   ROH30193  15.070  15.608   2.967  0.0723 -0.2425 -0.0638
    1CHOL    R130194  15.023  15.458   3.202  0.1473 -0.2694 -0.0656
    1CHOL    R230195  15.222  15.314   3.329  0.2571 -0.0357  0.0271
    1CHOL    R330196  15.144  15.459   3.545  0.0132 -0.0982 -0.0189
    1CHOL    R430197  15.318  15.250   3.655  0.2537  0.1459  0.0635
    1CHOL    R530198  15.115  15.297   3.719  0.1774 -0.1040  0.0020
    1CHOL    C130199  15.302  15.350   4.048  0.0223  0.1942  0.0418
    1CHOL    C230200  15.229  15.402   4.431 -0.2185 -0.2261 -0.1713
    1CHOL   ROH30201  10.918  20.956   2.523  0.0795 -0.1007  0.0620
    1CHOL    R130202  10.956  21.053   2.786 -0.0725 -0.0582  0.0684
    1CHOL    R230203  10.746  21.090   2.963 -0.1439 -0.2945  0.0339
    1CHOL    R330204  10.897  20.930   3.124  0.0091 -0.1235  0.0587
    1CHOL    R430205  10.699  21.052   3.303 -0.3576 -0.5913 -0.0290
    1CHOL    R530206  10.915  21.053   3.328 -0.3805 -0.2174  0.1512
    1CHOL    C130207  10.812  20.880   3.652 -0.3373 -0.6063 -0.0423
    1CHOL    C230208  10.772  20.952   4.098 -0.0593  0.0282  0.3121
    1CHOL   ROH30209  17.453  15.704   6.189 -0.0002  0.0430 -0.1202
    1CHOL    R130210  17.332  15.739   5.936  0.0401 -0.1993 -0.1736
    1CHOL    R230211  17.399  15.948   5.767 -0.2716 -0.0894 -0.1624
    1CHOL    R330212  17.444  15.747   5.589  0.1736 -0.0230 -0.1278
    1CHOL    R430213  17.382  15.982   5.424 -0.2203 -0.1574 -0.1717
    1CHOL    R530214  17.284  15.787   5.415  0.1554 -0.3457 -0.1853
    1CHOL    C130215  17.413  15.813   5.057  0.2264 -0.1354 -0.1444
    1CHOL    C230216  17.242  15.896   4.757 -0.0225 -0.0293 -0.2046
    1CHOL   ROH30217  20.344  17.101   2.760 -0.3221 -0.3073 -0.0050
    1CHOL    R130218  20.421  16.929   2.971 -0.2537 -0.1516  0.0962
    1CHOL    R230219  20.568  17.016   3.188 -0.1825  0.0068 -0.0159
    1CHOL    R330220  20.363  16.907   3.330 -0.1366  0.1110  0.1312
    1CHOL    R430221  20.570  16.965   3.530  0.1307 -0.2117 -0.0499
    1CHOL    R530222  20.471  16.773   3.497 -0.0868 -0.0963 -0.0681
    1CHOL    C130223  20.378  16.833   3.862  0.3574 -0.2411  0.0684
    1CHOL    C230224  20.471  16.924   4.220 -0.0971  0.3198 -0.2358
    1CHOL   ROH30225   3.009   6.570   6.254 -0.0209  0.2381 -0.1455
    1CHOL    R130226   2.968   6.436   6.008  0.0179  0.0062 -0.0267
    1CHOL    R230227   3.165   6.414   5.816 -0.0291  0.0443 -0.0793
    1CHOL    R330228   3.109   6.148   5.836  0.2308  0.0064  0.1475
    1CHOL    R430229   3.198   6.185   5.559 -0.1273 -0.0820  0.0207
    1CHOL    R530230   3.012   6.092   5.624  0.0319 -0.2086  0.2954
    1CHOL    C130231   3.164   5.803   5.428  0.0592 -0.1916  0.2915
    1CHOL    C230232   3.346   5.576   5.440  0.2162 -0.1444  0.1691
    1CHOL   ROH30233   1.136  28.776   3.436  0.1206  0.0591 -0.1028
    1CHOL    R130234   1.186  28.640   3.679  0.2970  0.0496 -0.1460
    1CHOL    R230235   1.392  28.712   3.849  0.1508  0.3168 -0.0813
    1CHOL    R330236   1.192  28.725   4.033  0.0955 -0.0781 -0.1126
    1CHOL    R430237   1.439  28.731   4.191  0.0548  0.0925 -0.0553
    1CHOL    R530238   1.272  28.593   4.217  0.2162 -0.1335 -0.2041
    1CHOL    C130239   1.279  28.754   4.563 -0.0528 -0.4104 -0.0694
    1CHOL    C230240   1.436  28.602   4.863  0.3297 -0.1603 -0.1302
    1CHOL   ROH30241  11.557  14.128   3.093 -0.1402 -0.2513 -0.0340
    1CHOL    R130242  11.499  14.226   3.352 -0.2680 -0.2642 -0.0578
    1CHOL    R230243  11.398  14.066   3.553 -0.0565 -0.3473 -0.0179
    1CHOL    R330244  11.612  14.160   3.691 -0.1795 -0.0327 -0.0419
    1CHOL    R430245  11.429  14.059   3.897  0.1402 -0.6118 -0.0407
    1CHOL    R530246  11.517  14.259   3.888 -0.2809 -0.4182  0.1020
    1CHOL    C130247  11.647  14.144   4.227  0.1392 -0.4684 -0.0761
    1CHOL    C230248  11.334  14.378   4.361 -0.1880  0.2871  0.1763
    1CHOL   ROH30249  19.216  15.529   5.829  0.0228 -0.0813  0.0217
    1CHOL    R130250  19.152  15.504   5.555  0.0305 -0.2017  0.0310
    1CHOL    R230251  19.221  15.695   5.368 -0.1789 -0.1678 -0.0123
    1CHOL    R330252  19.337  15.483   5.242  0.0306 -0.0740  0.0225
    1CHOL    R430253  19.272  15.672   5.027 -0.0849 -0.1392 -0.0002
    1CHOL    R530254  19.214  15.462   5.037  0.0944 -0.1884 -0.0036
    1CHOL    C130255  19.410  15.461   4.709  0.1673 -0.0358  0.0398
    1CHOL    C230256  19.460  15.330   4.353 -0.0081  0.1619  0.3991
    1CHOL   ROH30257  19.784   3.881   5.884 -0.0007  0.2604 -0.0686
    1CHOL    R130258  19.707   3.900   5.612 -0.1163  0.1632 -0.0427
    1CHOL    R230259  19.666   4.142   5.485 -0.1922  0.1181 -0.1052
    1CHOL    R330260  19.845   4.042   5.307 -0.2576  0.0769 -0.1474
    1CHOL    R430261  19.696   4.245   5.157 -0.2241  0.1354 -0.1025
    1CHOL    R530262  19.726   4.037   5.099 -0.2985  0.1302 -0.1254
    1CHOL    C130263  19.883   4.212   4.798 -0.3007  0.1067 -0.1406
    1CHOL    C230264  19.866   4.226   4.368  0.1390 -0.2584 -0.0398
    1CHOL   ROH30265  15.040  18.485   6.427  0.0670  0.2976  0.0869
    1CHOL    R130266  14.930  18.501   6.167  0.0772  0.0753  0.0684
    1CHOL    R230267  15.027  18.675   5.975 -0.1397  0.1583  0.0337
    1CHOL    R330268  15.047  18.448   5.827  0.1944  0.1452  0.0975
    1CHOL    R430269  15.048  18.666   5.630 -0.3605  0.0820  0.0226
    1CHOL    R530270  14.916  18.493   5.632 -0.0272 -0.1755  0.1731
    1CHOL    C130271  15.080  18.448   5.290 -0.1764  0.0247  0.0750
    1CHOL    C230272  14.850  18.557   4.984  0.0494 -0.1832 -0.0193
    1CHOL   ROH30273  26.220  18.813   5.809  0.0897 -0.1962 -0.0579
    1CHOL    R130274  26.217  18.702   5.549 -0.0019 -0.1936 -0.0582
    1CHOL    R230275  26.132  18.445   5.498 -0.0573 -0.1802 -0.0344
    1CHOL    R330276  25.967  18.569   5.321 -0.0895 -0.1526  0.0136
    1CHOL    R430277  25.901  18.284   5.296 -0.1211 -0.1459  0.0117
    1CHOL    R530278  25.957  18.419   5.134 -0.1478 -0.1402  0.0064
    1CHOL    C130279  25.612  18.307   5.013 -0.1888 -0.1011  0.0831
    1CHOL    C230280  25.485  18.063   4.733  0.1004 -0.2187  0.0801
    1CHOL   ROH30281  10.770  19.599   5.981  0.0205  0.0439 -0.0418
    1CHOL    R130282  10.677  19.529   5.723  0.0167 -0.0257 -0.0212
    1CHOL    R230283  10.808  19.604   5.492  0.0274 -0.1115 -0.0431
    1CHOL    R330284  10.801  19.338   5.440  0.0005 -0.1263  0.0396
    1CHOL    R430285  10.867  19.462   5.183 -0.0405 -0.2098 -0.0114
    1CHOL    R530286  10.704  19.323   5.222 -0.0420 -0.1869  0.0627
    1CHOL    C130287  10.895  19.129   4.954 -0.1046 -0.2811  0.0848
    1CHOL    C230288  10.925  19.334   4.685  0.2359 -0.0502 -0.1878
    1CHOL   ROH30289  20.624  14.115   5.720 -0.2588 -0.1641 -0.1027
    1CHOL    R130290  20.574  14.063   5.446 -0.2518  0.0496 -0.1450
    1CHOL    R230291  20.638  14.242   5.246 -0.0242  0.1040 -0.0239
    1CHOL    R330292  20.773  14.030   5.143 -0.2181  0.0293 -0.1210
    1CHOL    R430293  20.781  14.233   4.932  0.0315  0.1454  0.0005
    1CHOL    R530294  20.711  14.027   4.911 -0.1717  0.2279 -0.1349
    1CHOL    C130295  20.990  14.028   4.651 -0.1164  0.0985 -0.0763
    1CHOL    C230296  20.942  13.859   4.208  0.2237 -0.2125 -0.0956
    1CHOL   ROH30297   9.827   9.936   3.407 -0.3118 -0.0895  0.2711
    1CHOL    R130298   9.760   9.989   3.677 -0.0525  0.1855  0.2820
    1CHOL    R230299   9.776   9.797   3.874 -0.3521  0.2463  0.3673
    1CHOL    R330300   9.931   9.983   3.998  0.1126 -0.0200  0.1912
    1CHOL    R430301   9.909   9.765   4.192 -0.6232  0.3147  0.4878
    1CHOL    R530302   9.863   9.975   4.227 -0.0424  0.4988  0.1659
    1CHOL    C130303  10.131   9.920   4.493 -0.3450  0.1032  0.3926
    1CHOL    C230304  10.109  10.029   4.839  0.2937  0.2105 -0.1417
    1CHOL   ROH30305  10.943   7.637   7.001  0.1459 -0.0210  0.1413
    1CHOL    R130306  10.838   7.679   6.742  0.0925 -0.1390  0.1438
    1CHOL    R230307  10.872   7.915   6.604 -0.2623 -0.0639  0.1828
    1CHOL    R330308  10.972   7.751   6.411 -0.0055  0.1171  0.1600
    1CHOL    R430309  10.877   7.988   6.266 -0.5326 -0.0832  0.1743
    1CHOL    R530310  10.823   7.781   6.226 -0.1335 -0.1962  0.2122
    1CHOL    C130311  10.974   7.876   5.888 -0.4484  0.0756  0.1482
    1CHOL    C230312  10.694   7.935   5.674  0.0725 -0.1301 -0.1232
    1CHOL   ROH30313  20.006   1.349   6.014  0.0978 -0.0032  0.0800
    1CHOL    R130314  19.778   1.467   5.894  0.1259 -0.0107  0.0210
    1CHOL    R230315  19.736   1.740   5.891  0.1316 -0.0102 -0.0158
    1CHOL    R330316  19.713   1.701   5.623  0.1870 -0.0374 -0.0165
    1CHOL    R430317  19.672   1.989   5.661  0.3595 -0.0047 -0.0734
    1CHOL    R530318  19.539   1.851   5.556  0.3023  0.0637 -0.0911
    1CHOL    C130319  19.613   2.098   5.275  0.5443 -0.0273 -0.1081
    1CHOL    C230320  19.381   2.306   5.157 -0.0494  0.2593  0.2027
    1CHOL   ROH30321  28.397  14.656   3.054  0.0689  0.0302 -0.0387
    1CHOL    R130322  28.352  14.691   3.331 -0.0639  0.0377 -0.0609
    1CHOL    R230323  28.548  14.781   3.503 -0.0935 -0.1245  0.0591
    1CHOL    R330324  28.361  14.967   3.568  0.0086  0.0096 -0.0305
    1CHOL    R430325  28.474  14.882   3.825 -0.3061 -0.2079  0.0362
    1CHOL    R530326  28.263  14.884   3.770 -0.2527  0.0024 -0.1602
    1CHOL    C130327  28.254  15.115   4.074 -0.3338 -0.1304 -0.0615
    1CHOL    C230328  28.116  14.946   4.432 -0.1985 -0.1242  0.1878
    1CHOL   ROH30329  11.163   7.218   3.597 -0.1215  0.0607  0.1356
    1CHOL    R130330  11.141   7.120   3.861 -0.3042 -0.2108  0.0212
    1CHOL    R230331  11.181   7.281   4.083  0.1341 -0.5758  0.2100
    1CHOL    R330332  10.934   7.190   4.153 -0.0758 -0.0614  0.1484
    1CHOL    R430333  11.063   7.258   4.407  0.1435 -0.6797  0.2060
    1CHOL    R530334  10.972   7.067   4.355 -0.3314 -0.3960 -0.0052
    1CHOL    C130335  10.764   7.160   4.662 -0.0473 -0.2576  0.1465
    1CHOL    C230336  10.823   7.265   4.955 -0.1327  0.1766  0.2126
    1CHOL   ROH30337   6.964  17.524   2.899 -0.1049  0.0249 -0.0588
    1CHOL    R130338   7.011  17.449   3.168  0.0103  0.0362 -0.0759
    1CHOL    R230339   7.250  17.499   3.296  0.0231  0.1491 -0.1432
    1CHOL    R330340   7.090  17.620   3.479  0.0167  0.0614 -0.0914
    1CHOL    R430341   7.332  17.547   3.628  0.0982  0.1802 -0.1665
    1CHOL    R530342   7.127  17.496   3.681  0.1407  0.0744 -0.1062
    1CHOL    C130343   7.230  17.689   3.994  0.1361  0.1180 -0.1312
    1CHOL    C230344   7.448  17.632   4.325 -0.1428 -0.1954 -0.2490
    1CHOL   ROH30345  19.117  14.921   2.611 -0.1302 -0.1617  0.0746
    1CHOL    R130346  19.247  14.917   2.862 -0.0486 -0.1941  0.0322
    1CHOL    R230347  19.213  15.116   3.050  0.1492 -0.1295 -0.0002
    1CHOL    R330348  19.145  14.909   3.212  0.0640 -0.0492  0.0680
    1CHOL    R430349  19.174  15.138   3.393  0.1287  0.0057 -0.0110
    1CHOL    R530350  19.273  14.944   3.411  0.0591 -0.0234  0.0658
    1CHOL    C130351  19.087  14.955   3.744  0.0364  0.1600  0.0469
    1CHOL    C230352  18.998  14.893   4.075  0.2047 -0.0218  0.0176
    1CHOL   ROH30353  14.811  21.103   2.585  0.0057  0.0063 -0.1466
    1CHOL    R130354  14.735  20.923   2.789 -0.0558  0.0544 -0.1252
    1CHOL    R230355  14.850  20.926   3.040 -0.0273  0.0221 -0.1376
    1CHOL    R330356  14.592  20.946   3.123 -0.0099  0.1468 -0.1118
    1CHOL    R430357  14.743  20.890   3.367 -0.0205  0.0086 -0.1366
    1CHOL    R530358  14.571  20.780   3.293 -0.0877  0.1192 -0.1471
    1CHOL    C130359  14.439  20.888   3.635  0.0000  0.1162 -0.1123
    1CHOL    C230360  14.542  20.773   3.970  0.1285  0.0765 -0.0770
    1CHOL   ROH30361   1.245  13.716   2.541 -0.0535  0.0028  0.0276
    1CHOL    R130362   1.042  13.717   2.738 -0.1125  0.1116 -0.0339
    1CHOL    R230363   1.068  13.586   2.979 -0.3147 -0.0252 -0.0864
    1CHOL    R330364   1.008  13.830   3.082 -0.1069 -0.0139  0.0075
    1CHOL    R430365   1.022  13.652   3.315 -0.2581 -0.1154 -0.0606
    1CHOL    R530366   0.856  13.783   3.261 -0.1471  0.0463 -0.0107
    1CHOL    C130367   0.938  13.921   3.607 -0.0301 -0.1562  0.0427
    1CHOL    C230368   1.148  13.705   3.951  0.2272  0.2468 -0.2364
    1CHOL   ROH30369  19.008  24.897   5.356 -0.1552 -0.0052  0.0203
    1CHOL    R130370  18.742  24.813   5.310 -0.1402 -0.0544  0.0193
    1CHOL    R230371  18.669  24.668   5.087 -0.1493  0.1071 -0.0831
    1CHOL    R330372  18.568  24.496   5.271 -0.0447 -0.0778 -0.2000
    1CHOL    R430373  18.460  24.402   5.015  0.0067  0.0324 -0.2632
    1CHOL    R530374  18.346  24.450   5.195 -0.0191 -0.1583 -0.2284
    1CHOL    C130375  18.243  24.086   5.147  0.1981 -0.1872 -0.4774
    1CHOL    C230376  17.999  23.873   4.876  0.3390 -0.1471 -0.3211
    1CHOL   ROH30377  19.595  27.870   3.850  0.1179 -0.0240 -0.2077
    1CHOL    R130378  19.784  27.874   4.060  0.0105 -0.0086 -0.1128
    1CHOL    R230379  19.909  28.106   4.143  0.0816 -0.0267 -0.1649
    1CHOL    R330380  19.814  28.031   4.386 -0.0787  0.1402 -0.1765
    1CHOL    R430381  20.049  28.197   4.446  0.0067  0.0076 -0.1411
    1CHOL    R530382  20.011  27.995   4.518 -0.1621  0.0629 -0.0725
    1CHOL    C130383  20.041  28.180   4.851 -0.1875  0.1845 -0.1373
    1CHOL    C230384  20.102  28.242   5.220 -0.0707 -0.1229  0.0087
    1CHOL   ROH30385   8.165   9.596   3.737  0.2422  0.1258  0.0440
    1CHOL    R130386   8.142   9.486   3.996  0.1049  0.1001  0.0209
    1CHOL    R230387   8.357   9.468   4.170  0.0311  0.0074  0.1024
    1CHOL    R330388   8.191   9.602   4.338  0.0088  0.0398  0.0545
    1CHOL    R430389   8.372   9.454   4.515 -0.1225 -0.0591  0.1070
    1CHOL    R530390   8.154   9.450   4.519 -0.1259  0.0219  0.0119
    1CHOL    C130391   8.225   9.572   4.874 -0.2333 -0.0676  0.0644
    1CHOL    C230392   8.478   9.594   5.027  0.1101 -0.2290  0.0028
    1CHOL   ROH30393  19.135  22.266   6.405 -0.0920 -0.0024 -0.0234
    1CHOL    R130394  19.095  22.308   6.128 -0.0315  0.0954 -0.0167
    1CHOL    R230395  19.079  22.560   6.017  0.0775  0.1322  0.0542
    1CHOL    R330396  19.276  22.466   5.856  0.0678  0.1070  0.0582
    1CHOL    R430397  19.072  22.568   5.672 -0.0458 -0.1383  0.0498
    1CHOL    R530398  19.160  22.369   5.670  0.0553 -0.0944  0.1731
    1CHOL    C130399  19.254  22.485   5.319 -0.1275 -0.3161  0.0512
    1CHOL    C230400  18.895  22.405   5.027 -0.0454 -0.2855 -0.2412
    1CHOL   ROH30401   9.942   3.280   4.471  0.0842  0.0135 -0.0397
    1CHOL    R130402  10.094   3.069   4.581  0.0877 -0.0901 -0.2432
    1CHOL    R230403  10.040   2.960   4.829  0.4309  0.0387 -0.1110
    1CHOL    R330404  10.032   2.727   4.690 -0.0316  0.0011 -0.0234
    1CHOL    R430405  10.085   2.646   4.966  0.2627  0.0324 -0.0701
    1CHOL    R530406  10.201   2.591   4.790 -0.0458 -0.1601 -0.2158
    1CHOL    C130407  10.104   2.244   4.915 -0.2699 -0.0071  0.0353
    1CHOL    C230408   9.873   1.961   5.259 -0.1055  0.0671 -0.0920
    1CHOL   ROH30409  16.822  20.710   3.446 -0.0085 -0.2402 -0.0561
    1CHOL    R130410  16.812  20.805   3.712 -0.0877 -0.2766 -0.0461
    1CHOL    R230411  16.882  20.647   3.928 -0.0151 -0.2602 -0.0581
    1CHOL    R330412  17.050  20.853   3.984 -0.1397 -0.1679 -0.0196
    1CHOL    R430413  16.931  20.782   4.243 -0.1841 -0.2117 -0.0517
    1CHOL    R530414  16.935  20.980   4.151 -0.2594 -0.2155 -0.0648
    1CHOL    C130415  17.118  21.054   4.478 -0.4018 -0.0960 -0.0124
    1CHOL    C230416  17.302  21.247   4.749 -0.1712  0.0225  0.0115
    1CHOL   ROH30417  10.822   9.487   6.483  0.0900  0.2733  0.0774
    1CHOL    R130418  10.837   9.382   6.221  0.0157  0.2179  0.0954
    1CHOL    R230419  10.678   9.473   6.015 -0.0103  0.2052  0.1104
    1CHOL    R330420  10.917   9.509   5.890 -0.0304  0.1355  0.0534
    1CHOL    R430421  10.718   9.525   5.675 -0.0777  0.2117  0.1037
    1CHOL    R530422  10.893   9.395   5.680 -0.1187  0.1554  0.0529
    1CHOL    C130423  10.965   9.589   5.360 -0.1356  0.1492  0.0457
    1CHOL    C230424  10.872   9.642   4.966 -0.0867 -0.0240  0.2136
    1CHOL   ROH30425  14.671  15.174   6.401 -0.1379 -0.1474 -0.0004
    1CHOL    R130426  14.654  15.047   6.149 -0.0873 -0.0720 -0.0422
    1CHOL    R230427  14.497  15.144   5.943 -0.0484 -0.0120 -0.0437
    1CHOL    R330428  14.730  15.132   5.803 -0.0206  0.0321 -0.0017
    1CHOL    R430429  14.521  15.143   5.598  0.0148  0.0100 -0.0391
    1CHOL    R530430  14.679  14.994   5.615  0.0358  0.0348 -0.0188
    1CHOL    C130431  14.753  15.130   5.266  0.0775  0.0657  0.0025
    1CHOL    C230432  14.645  15.132   4.878 -0.1940 -0.0458  0.1051
    1CHOL   ROH30433  19.147  19.672   6.426 -0.4194  0.1909 -0.0319
    1CHOL    R130434  19.241  19.721   6.163 -0.5283  0.2098 -0.0675
    1CHOL    R230435  19.409  19.547   6.030 -0.0786  0.5228  0.0873
    1CHOL    R330436  19.216  19.559   5.838 -0.0999 -0.1225  0.0653
    1CHOL    R430437  19.466  19.524   5.690  0.0086  0.4892  0.1044
    1CHOL    R530438  19.318  19.681   5.659 -0.4263  0.0582  0.0031
    1CHOL    C130439  19.319  19.523   5.312  0.0404 -0.1373  0.0940
    1CHOL    C230440  19.543  19.423   5.087 -0.0036  0.0986 -0.1947
    1CHOL   ROH30441  27.919  24.662   6.108 -0.0843  0.3218 -0.0274
    1CHOL    R130442  27.874  24.762   5.847  0.0067  0.1850 -0.0949
    1CHOL    R230443  28.077  24.789   5.662  0.0520 -0.0185 -0.0757
    1CHOL    R330444  27.912  24.639   5.507  0.0096 -0.0360 -0.0147
    1CHOL    R430445  28.079  24.786   5.316 -0.0029 -0.1001 -0.0753
    1CHOL    R530446  27.861  24.780   5.320 -0.0029 -0.0744 -0.0396
    1CHOL    C130447  27.924  24.644   4.969 -0.0758 -0.1634 -0.0180
    1CHOL    C230448  28.025  24.676   4.604 -0.1508  0.1813 -0.0089
    1CHOL   ROH30449  21.990   6.496   3.433 -0.1317 -0.2376  0.1012
    1CHOL    R130450  21.933   6.403   3.694 -0.2422 -0.0446  0.1462
    1CHOL    R230451  22.123   6.394   3.894 -0.2778 -0.0769  0.1788
    1CHOL    R330452  21.939   6.540   4.031 -0.1854  0.1441  0.0690
    1CHOL    R430453  22.112   6.425   4.238 -0.4530 -0.0734  0.1733
    1CHOL    R530454  21.894   6.410   4.227 -0.4654  0.1912  0.0379
    1CHOL    C130455  21.932   6.579   4.567 -0.4693  0.1357  0.0665
    1CHOL    C230456  22.060   6.787   4.873 -0.1015  0.0238 -0.3746
    1CHOL   ROH30457  15.958  22.412   6.371  0.0590  0.0978 -0.1107
    1CHOL    R130458  16.193  22.360   6.222  0.0391 -0.0477 -0.0930
    1CHOL    R230459  16.209  22.156   6.037 -0.0909 -0.0268 -0.1273
    1CHOL    R330460  16.288  22.356   5.871  0.0766 -0.0554 -0.0821
    1CHOL    R430461  16.375  22.110   5.737  0.1307 -0.0820  0.0024
    1CHOL    R530462  16.499  22.283   5.785  0.1259 -0.1020  0.0846
    1CHOL    C130463  16.545  22.271   5.407  0.4133 -0.1411  0.1205
    1CHOL    C230464  16.496  22.103   5.111 -0.1687 -0.3197  0.0196
    1CHOL   ROH30465  10.990   9.920   3.297  0.3644 -0.0840 -0.0177
    1CHOL    R130466  10.891   9.923   3.562  0.1101  0.0548 -0.1129
    1CHOL    R230467  11.039   9.830   3.776 -0.2330 -0.1625  0.0300
    1CHOL    R330468  10.987  10.077   3.878  0.0260 -0.0876 -0.0180
    1CHOL    R430469  11.095   9.925   4.104 -0.0644 -0.1359 -0.0069
    1CHOL    R530470  10.907  10.035   4.100  0.0381  0.0420  0.0114
    1CHOL    C130471  11.079  10.212   4.390  0.2771 -0.0505 -0.0730
    1CHOL    C230472  11.164  10.105   4.762  0.1161 -0.0428 -0.0032
    1CHOL   ROH30473  26.471  17.629   3.037 -0.0589 -0.0492  0.0628
    1CHOL    R130474  26.262  17.769   3.166  0.0267  0.0477  0.0961
    1CHOL    R230475  26.062  17.642   3.306 -0.0691  0.1345  0.0365
    1CHOL    R330476  26.141  17.808   3.506  0.0265  0.0135  0.1005
    1CHOL    R430477  25.854  17.765   3.554 -0.0134  0.2213  0.0402
    1CHOL    R530478  25.955  17.958   3.536  0.1383  0.1478  0.1161
    1CHOL    C130479  25.807  17.994   3.885  0.1087  0.1561  0.1023
    1CHOL    C230480  25.790  17.926   4.274 -0.0817 -0.1314  0.2866
    1CHOL   ROH30481  22.817  12.543   2.884 -0.1375 -0.0132  0.0728
    1CHOL    R130482  22.717  12.473   3.139  0.0114 -0.1092  0.1060
    1CHOL    R230483  22.880  12.384   3.344  0.1630  0.0406  0.0498
    1CHOL    R330484  22.765  12.587   3.482  0.0228 -0.0684  0.0912
    1CHOL    R430485  22.931  12.448   3.679  0.3843  0.2112 -0.0163
    1CHOL    R530486  22.719  12.494   3.698  0.3414 -0.0620  0.1620
    1CHOL    C130487  22.852  12.677   4.004  0.3803  0.2092 -0.0161
    1CHOL    C230488  23.081  12.571   4.203 -0.0509  0.0948  0.0103
    1CHOL   ROH30489  12.892  20.443   5.885  0.0007 -0.0200 -0.0108
    1CHOL    R130490  12.806  20.422   5.616  0.0100 -0.0610 -0.0105
    1CHOL    R230491  12.887  20.599   5.420 -0.0483 -0.0426 -0.0176
    1CHOL    R330492  12.962  20.371   5.291  0.0306 -0.0219 -0.0067
    1CHOL    R430493  12.807  20.521   5.092  0.1411  0.0019 -0.0744
    1CHOL    R530494  12.774  20.315   5.155  0.1106 -0.0067 -0.1230
    1CHOL    C130495  12.832  20.262   4.781  0.3261  0.0465 -0.0975
    1CHOL    C230496  12.553  20.124   4.610 -0.2284  0.0194 -0.0221
    1CHOL   ROH30497  16.711   7.266   3.171  0.0076 -0.2241  0.0173
    1CHOL    R130498  16.652   7.094   3.388 -0.2480 -0.0720  0.0688
    1CHOL    R230499  16.826   7.056   3.600 -0.2816 -0.3089  0.0538
    1CHOL    R330500  16.610   7.127   3.748 -0.1424  0.0885  0.0663
    1CHOL    R430501  16.810   7.039   3.944 -0.3109 -0.3209  0.0519
    1CHOL    R530502  16.605   6.966   3.926 -0.4492  0.0763  0.0461
    1CHOL    C130503  16.597   7.095   4.285 -0.1957  0.0452  0.0625
    1CHOL    C230504  16.797   7.392   4.527 -0.1475 -0.1904 -0.1704
    1CHOL   ROH30505  14.979  16.466   2.743  0.0727 -0.1854 -0.0194
    1CHOL    R130506  15.024  16.343   2.994  0.3457 -0.1202 -0.0372
    1CHOL    R230507  15.222  16.428   3.167  0.1317  0.3198 -0.0074
    1CHOL    R330508  15.016  16.445   3.343  0.0762 -0.2007 -0.0202
    1CHOL    R430509  15.247  16.364   3.506  0.2971  0.4940  0.0137
    1CHOL    R530510  15.053  16.264   3.496  0.5779 -0.0496  0.0376
    1CHOL    C130511  15.067  16.343   3.869  0.3417  0.1045  0.0132
    1CHOL    C230512  14.869  16.275   4.081 -0.0572 -0.1436  0.1315
    1CHOL   ROH30513  27.106  25.471   3.600 -0.0245  0.0261  0.1831
    1CHOL    R130514  26.973  25.650   3.774 -0.0963  0.0639  0.0889
    1CHOL    R230515  26.764  25.810   3.691 -0.0607  0.0458 -0.0323
    1CHOL    R330516  26.635  25.694   3.900 -0.1465  0.0919 -0.0597
    1CHOL    R430517  26.541  25.972   3.900  0.1411  0.1879  0.0724
    1CHOL    R530518  26.628  25.864   4.069  0.0553  0.0267  0.0126
    1CHOL    C130519  26.290  25.957   4.217  0.1758  0.3146  0.1073
    1CHOL    C230520  26.160  25.989   4.542  0.1965 -0.1299 -0.1216
    1CHOL   ROH30521  16.671  14.081   6.095  0.1370  0.1906  0.0328
    1CHOL    R130522  16.624  13.954   5.846  0.0496  0.1397  0.0749
    1CHOL    R230523  16.758  14.026   5.616  0.0428  0.0229  0.0341
    1CHOL    R330524  16.819  13.761   5.607 -0.0622 -0.0029  0.0984
    1CHOL    R430525  16.771  13.835   5.328  0.1516 -0.0081  0.0591
    1CHOL    R530526  16.676  13.672   5.437  0.0105  0.0420  0.0124
    1CHOL    C130527  16.835  13.476   5.152  0.1153 -0.0507  0.1340
    1CHOL    C230528  16.659  13.634   4.793 -0.1457 -0.1465 -0.2476
    1CHOL   ROH30529  25.630  29.087   3.720  0.0811  0.0115  0.2661
    1CHOL    R130530  25.422  29.131   3.907 -0.0143  0.2508  0.1047
    1CHOL    R230531  25.470  29.164   4.177 -0.1999  0.0285  0.1648
    1CHOL    R330532  25.328  29.393   4.142  0.2075  0.2808  0.1604
    1CHOL    R430533  25.308  29.337   4.429 -0.3777  0.0048  0.0670
    1CHOL    R530534  25.142  29.372   4.291 -0.0858  0.4005 -0.1855
    1CHOL    C130535  25.080  29.653   4.542 -0.1001  0.2272  0.0058
    1CHOL    C230536  25.016  29.422   4.845  0.0323 -0.0143  0.2212
    1CHOL   ROH30537  12.453  13.553   2.888 -0.6402  0.0074  0.0479
    1CHOL    R130538  12.615  13.457   3.099 -0.4768 -0.2074 -0.1751
    1CHOL    R230539  12.705  13.619   3.303  0.0431 -0.3191 -0.3131
    1CHOL    R330540  12.590  13.430   3.461 -0.0009 -0.1456 -0.1366
    1CHOL    R430541  12.791  13.557   3.632  0.0653 -0.0687 -0.2716
    1CHOL    R530542  12.771  13.344   3.592 -0.0138 -0.0954 -0.0869
    1CHOL    C130543  12.733  13.344   3.972  0.0366  0.2405 -0.0817
    1CHOL    C230544  12.840  13.304   4.388 -0.0087  0.0563 -0.2708
    1CHOL   ROH30545  12.492   0.953   4.089 -0.2359 -0.2949  0.0480
    1CHOL    R130546  12.498   0.854   4.353 -0.1740 -0.3102  0.0403
    1CHOL    R230547  12.586   0.600   4.415  0.2989 -0.1415  0.0600
    1CHOL    R330548  12.751   0.733   4.585 -0.0517  0.1688  0.1584
    1CHOL    R430549  12.697   0.478   4.719  0.4139  0.0309  0.0877
    1CHOL    R530550  12.669   0.677   4.803 -0.0353 -0.0397  0.1118
    1CHOL    C130551  12.916   0.532   5.056  0.1516  0.4227  0.1962
    1CHOL    C230552  13.017   0.678   5.359 -0.1305  0.1358  0.1266
    1CHOL   ROH30553  23.186   5.051   6.074 -0.3276 -0.2348 -0.1009
    1CHOL    R130554  23.235   4.935   5.820 -0.2117 -0.1738 -0.1070
    1CHOL    R230555  23.089   5.002   5.595 -0.0973 -0.1042 -0.1609
    1CHOL    R330556  23.334   5.052   5.490 -0.0421 -0.0979 -0.0287
    1CHOL    R430557  23.166   4.984   5.259  0.0381  0.0837 -0.1388
    1CHOL    R530558  23.357   4.892   5.313 -0.0057  0.0057 -0.1168
    1CHOL    C130559  23.442   5.022   4.964  0.1702  0.1988 -0.0022
    1CHOL    C230560  23.115   4.997   4.742  0.1638 -0.4541 -0.2054
    1CHOL   ROH30561   1.853   9.655   3.797 -0.0857  0.0034  0.2408
    1CHOL    R130562   2.037   9.695   4.008 -0.0266  0.0105  0.1876
    1CHOL    R230563   2.175   9.932   4.042  0.0105 -0.0023  0.1196
    1CHOL    R330564   2.069   9.920   4.292  0.0740  0.0450  0.1488
    1CHOL    R430565   2.283  10.120   4.311 -0.0402  0.1812  0.0124
    1CHOL    R530566   2.258   9.944   4.438  0.0927  0.2217  0.0956
    1CHOL    C130567   2.247  10.218   4.702 -0.0103  0.3325 -0.0226
    1CHOL    C230568   2.310  10.421   4.970 -0.3513  0.1850 -0.1013
    1CHOL   ROH30569  25.679  27.307   6.024  0.1753  0.4020  0.1104
    1CHOL    R130570  25.560  27.495   5.848  0.1211  0.2203 -0.0479
    1CHOL    R230571  25.684  27.581   5.617  0.0885  0.0473 -0.1290
    1CHOL    R330572  25.451  27.500   5.501  0.1042 -0.1113 -0.0485
    1CHOL    R430573  25.542  27.726   5.336 -0.2594  0.1421  0.0949
    1CHOL    R530574  25.347  27.704   5.430 -0.1726 -0.1640  0.2048
    1CHOL    C130575  25.242  27.734   5.065 -0.4468  0.0480  0.3007
    1CHOL    C230576  25.276  28.049   4.793  0.0143  0.1213 -0.2000
    1CHOL   ROH30577  19.246  14.520   5.996 -0.0111 -0.0959 -0.1353
    1CHOL    R130578  19.097  14.404   5.785 -0.0210 -0.0505 -0.1519
    1CHOL    R230579  18.967  14.556   5.594  0.0476 -0.0122 -0.1679
    1CHOL    R330580  19.111  14.403   5.421  0.0207 -0.0571 -0.1501
    1CHOL    R430581  18.952  14.579   5.249  0.0353 -0.0653 -0.1709
    1CHOL    R530582  18.961  14.362   5.239  0.0057 -0.0672 -0.1376
    1CHOL    C130583  19.079  14.449   4.887  0.0038 -0.1383 -0.1559
    1CHOL    C230584  18.924  14.562   4.466 -0.1734 -0.0898  0.2188
    1CHOL   ROH30585   5.722  15.609   5.399  0.1725  0.0043 -0.0503
    1CHOL    R130586   5.856  15.483   5.184  0.1810  0.0591 -0.0770
    1CHOL    R230587   5.723  15.349   4.984  0.1957 -0.0129 -0.0396
    1CHOL    R330588   5.865  15.515   4.822  0.0786  0.0475 -0.0802
    1CHOL    R430589   5.801  15.283   4.653  0.0336  0.0696 -0.0949
    1CHOL    R530590   5.999  15.368   4.689  0.0365  0.1006 -0.1817
    1CHOL    C130591   5.981  15.401   4.309 -0.1707  0.1749 -0.1650
    1CHOL    C230592   5.815  15.500   3.953 -0.2207  0.1338  0.0177
    1CHOL   ROH30593  27.356   0.628   3.656  0.0171 -0.0341  0.0320
    1CHOL    R130594  27.323   0.732   3.917 -0.0353  0.0332 -0.0014
    1CHOL    R230595  27.291   0.571   4.139 -0.0429  0.0894  0.0384
    1CHOL    R330596  27.501   0.714   4.234 -0.0783  0.1465  0.0293
    1CHOL    R430597  27.376   0.599   4.473 -0.0038  0.0662  0.0303
    1CHOL    R530598  27.421   0.810   4.438 -0.0811  0.0874  0.0558
    1CHOL    C130599  27.623   0.750   4.756 -0.0133  0.1063  0.0166
    1CHOL    C230600  27.628   0.570   5.076  0.0237  0.2001  0.3476
    1CHOL   ROH30601  20.624  15.686   5.891  0.0913  0.0761 -0.0540
    1CHOL    R130602  20.520  15.720   5.630  0.0114  0.0343 -0.0274
    1CHOL    R230603  20.682  15.746   5.407 -0.0557  0.1198 -0.0666
    1CHOL    R330604  20.533  15.539   5.314  0.0189  0.0503 -0.0362
    1CHOL    R430605  20.706  15.614   5.089 -0.1602  0.2236 -0.1175
    1CHOL    R530606  20.488  15.596   5.086 -0.1507  0.0858  0.0062
    1CHOL    C130607  20.579  15.342   4.816 -0.1485  0.2193 -0.1193
    1CHOL    C230608  20.651  15.343   4.453 -0.1714 -0.0870  0.2453
    1CHOL   ROH30609  10.400  11.384   3.560 -0.0333 -0.2162  0.0530
    1CHOL    R130610  10.459  11.354   3.835 -0.1202 -0.2170  0.0714
    1CHOL    R230611  10.568  11.557   3.986  0.0233 -0.2845  0.0582
    1CHOL    R330612  10.353  11.510   4.146 -0.0531 -0.0690  0.0198
    1CHOL    R430613  10.533  11.676   4.309  0.0272 -0.1421  0.0060
    1CHOL    R530614  10.447  11.483   4.365 -0.1292 -0.0601  0.0536
    1CHOL    C130615  10.310  11.701   4.647 -0.0424  0.1436 -0.0599
    1CHOL    C230616  10.384  11.575   5.042  0.1644  0.2648 -0.1507
    1CHOL   ROH30617  19.314   8.632   5.730 -0.0503 -0.0229  0.0651
    1CHOL    R130618  19.235   8.494   5.496  0.2127 -0.1898  0.0737
    1CHOL    R230619  19.125   8.622   5.278 -0.1409 -0.4268  0.1108
    1CHOL    R330620  19.325   8.497   5.143  0.1191  0.0492  0.0517
    1CHOL    R430621  19.158   8.615   4.934 -0.1669 -0.2594  0.1047
    1CHOL    R530622  19.219   8.406   4.949  0.2928 -0.1297  0.0403
    1CHOL    C130623  19.366   8.493   4.607  0.0601  0.2857  0.0458
    1CHOL    C230624  19.152   8.816   4.396  0.1278 -0.2734  0.0315
    1CHOL   ROH30625  12.794  15.569   2.930 -0.2571 -0.0368  0.0666
    1CHOL    R130626  12.753  15.542   3.209 -0.2203  0.0892  0.0842
    1CHOL    R230627  12.957  15.485   3.385 -0.2278 -0.0172  0.0599
    1CHOL    R330628  12.869  15.709   3.511 -0.0225  0.0951  0.0049
    1CHOL    R430629  13.000  15.552   3.721 -0.4745 -0.1349  0.1147
    1CHOL    R530630  12.797  15.632   3.726 -0.3605  0.1683 -0.0821
    1CHOL    C130631  12.941  15.801   4.035 -0.4246 -0.0990  0.0949
    1CHOL    C230632  12.852  16.042   4.301 -0.0955  0.0490  0.0973
    1CHOL   ROH30633   7.030  26.382   5.531 -0.0432 -0.3981 -0.0763
    1CHOL    R130634   6.986  26.330   5.256 -0.0286 -0.1974 -0.1168
    1CHOL    R230635   6.737  26.354   5.138 -0.0055 -0.0293 -0.1312
    1CHOL    R330636   6.870  26.518   4.966  0.0738  0.0374 -0.0045
    1CHOL    R430637   6.592  26.525   4.875  0.1478 -0.0629 -0.2370
    1CHOL    R530638   6.767  26.478   4.754  0.2668  0.0181 -0.0947
    1CHOL    C130639   6.632  26.778   4.561  0.3113 -0.0168 -0.1795
    1CHOL    C230640   6.479  26.556   4.174 -0.0787 -0.0782 -0.1541
    1CHOL   ROH30641  11.430  13.515   6.677 -0.1857  0.0199  0.1032
    1CHOL    R130642  11.502  13.418   6.421 -0.1254 -0.0081  0.1307
    1CHOL    R230643  11.617  13.170   6.383 -0.0804  0.0027  0.1897
    1CHOL    R330644  11.410  13.135   6.210 -0.0439 -0.0554  0.1577
    1CHOL    R430645  11.595  12.917   6.148  0.0329  0.0057  0.1774
    1CHOL    R530646  11.513  13.062   6.007  0.0086 -0.0153  0.1705
    1CHOL    C130647  11.388  12.738   5.849  0.1333 -0.0491  0.1404
    1CHOL    C230648  11.605  12.734   5.520 -0.0821  0.3368  0.0987
    1CHOL   ROH30649  16.443  22.571   2.967  0.0765 -0.1498  0.0254
    1CHOL    R130650  16.561  22.437   3.187  0.0496 -0.0525  0.0992
    1CHOL    R230651  16.639  22.569   3.417 -0.0577  0.0357  0.0849
    1CHOL    R330652  16.480  22.385   3.538 -0.0425  0.0259  0.0902
    1CHOL    R430653  16.622  22.517   3.758 -0.0744  0.0629  0.0882
    1CHOL    R530654  16.613  22.303   3.720 -0.0429  0.0591  0.1061
    1CHOL    C130655  16.463  22.314   4.071 -0.0677  0.0695  0.0954
    1CHOL    C230656  16.216  22.160   4.247 -0.0067  0.0938 -0.2493
    1CHOL   ROH30657  15.208  14.127   2.777 -0.0814 -0.2729 -0.1808
    1CHOL    R130658  15.155  14.278   3.010 -0.1464 -0.2584 -0.2046
    1CHOL    R230659  15.002  14.180   3.219 -0.0221 -0.3290 -0.1462
    1CHOL    R330660  15.221  14.246   3.367 -0.0402 -0.1226 -0.2121
    1CHOL    R430661  15.046  14.100   3.553  0.1397 -0.2608 -0.1514
    1CHOL    R530662  15.133  14.299   3.583 -0.0272 -0.1817 -0.1922
    1CHOL    C130663  15.277  14.116   3.886  0.2185 -0.0276 -0.2163
    1CHOL    C230664  15.246  13.998   4.177  0.4039  0.0769 -0.2961
    1CHOL   ROH30665  15.204  14.147   6.121  0.2943  0.0289  0.0562
    1CHOL    R130666  15.299  14.253   5.877  0.1326  0.0410 -0.0024
    1CHOL    R230667  15.350  14.096   5.656  0.0635  0.0396 -0.0186
    1CHOL    R330668  15.182  14.270   5.533 -0.0561 -0.0215  0.0586
    1CHOL    R430669  15.323  14.135   5.314  0.2036  0.3366  0.0041
    1CHOL    R530670  15.307  14.350   5.345 -0.0410  0.2909  0.2007
    1CHOL    C130671  15.149  14.321   4.998  0.1731  0.4527  0.0891
    1CHOL    C230672  15.124  14.138   4.638 -0.1292 -0.0048  0.2442
    1CHOL   ROH30673  13.065  21.028   2.918 -0.1509 -0.0260  0.0691
    1CHOL    R130674  13.130  21.239   3.096  0.0682 -0.0916  0.0654
    1CHOL    R230675  12.965  21.313   3.305  0.0524  0.2126 -0.0550
    1CHOL    R330676  13.190  21.275   3.453 -0.1026 -0.1113  0.0970
    1CHOL    R430677  13.043  21.485   3.595  0.2208  0.2756 -0.1361
    1CHOL    R530678  13.250  21.494   3.528  0.2756 -0.1707 -0.0287
    1CHOL    C130679  13.299  21.549   3.902  0.1732  0.0066 -0.0412
    1CHOL    C230680  13.127  21.707   4.125 -0.2449  0.1393  0.1870
    1CHOL   ROH30681  14.684  11.012   2.795  0.1048 -0.2039  0.1332
    1CHOL    R130682  14.579  11.122   3.033 -0.0815 -0.1826  0.0416
    1CHOL    R230683  14.380  10.999   3.179 -0.0048 -0.3041  0.0430
    1CHOL    R330684  14.558  11.024   3.383 -0.0954 -0.0199  0.0867
    1CHOL    R430685  14.301  10.972   3.515 -0.0582 -0.3576  0.0261
    1CHOL    R530686  14.436  11.139   3.555 -0.3023 -0.1612  0.0346
    1CHOL    C130687  14.422  10.981   3.902 -0.1741 -0.1226  0.0575
    1CHOL    C230688  14.201  11.061   4.233  0.1263  0.4267  0.0586
    1CHOL   ROH30689  20.694  10.587   5.628  0.0137 -0.0180 -0.1670
    1CHOL    R130690  20.713  10.433   5.391  0.0877 -0.0186 -0.1609
    1CHOL    R230691  20.531  10.453   5.185  0.0446 -0.1571 -0.1366
    1CHOL    R330692  20.753  10.499   5.036 -0.0085 -0.0115 -0.1702
    1CHOL    R430693  20.570  10.355   4.856  0.1249 -0.2832 -0.0901
    1CHOL    R530694  20.776  10.301   4.902  0.1822 -0.0548 -0.0725
    1CHOL    C130695  20.802  10.341   4.524  0.1226 -0.2188 -0.0944
    1CHOL    C230696  20.674  10.289   4.182 -0.2332  0.1036  0.1824
    1CHOL   ROH30697   2.341   1.725   6.177 -0.0653 -0.1495  0.0694
    1CHOL    R130698   2.561   1.656   6.012 -0.0724 -0.1593  0.0641
    1CHOL    R230699   2.530   1.527   5.770 -0.1086  0.1461 -0.0946
    1CHOL    R330700   2.674   1.737   5.676  0.1138  0.1232  0.1950
    1CHOL    R430701   2.755   1.511   5.508 -0.1403  0.2719 -0.1297
    1CHOL    R530702   2.888   1.643   5.620  0.0089 -0.0291  0.0503
    1CHOL    C130703   3.022   1.699   5.268  0.0497  0.3236  0.1215
    1CHOL    C230704   3.076   1.773   4.833  0.2772  0.2585  0.0676
    1CHOL   ROH30705  17.123  11.806   2.762  0.0887  0.1792  0.0429
    1CHOL    R130706  17.104  11.890   3.032  0.0801  0.1583  0.0491
    1CHOL    R230707  16.862  11.925   3.160  0.0750  0.1955  0.0290
    1CHOL    R330708  16.971  11.756   3.343  0.0213  0.1556  0.0231
    1CHOL    R430709  16.801  11.936   3.500  0.2289  0.3242  0.0528
    1CHOL    R530710  17.012  11.893   3.534  0.2108  0.1702 -0.0278
    1CHOL    C130711  16.867  11.783   3.869  0.2683  0.3618  0.0613
    1CHOL    C230712  16.661  11.536   4.172 -0.3189 -0.1515  0.0803
    1CHOL   ROH30713  15.375   6.388   3.500  0.0651 -0.0678  0.1357
    1CHOL    R130714  15.301   6.341   3.769  0.0939 -0.0145  0.1527
    1CHOL    R230715  15.445   6.443   3.982  0.0458  0.1307  0.1156
    1CHOL    R330716  15.203   6.543   4.055 -0.0045  0.0313  0.0864
    1CHOL    R430717  15.348   6.509   4.308 -0.0143  0.1063  0.1028
    1CHOL    R530718  15.151   6.430   4.260  0.0238  0.0196  0.0875
    1CHOL    C130719  15.065   6.642   4.566 -0.0971 -0.0010  0.0683
    1CHOL    C230720  15.073   6.768   4.926 -0.0116 -0.1224 -0.0815
    1CHOL   ROH30721  12.799  13.054   6.641 -0.0407  0.2027 -0.0238
    1CHOL    R130722  12.815  12.927   6.389  0.1760  0.2284 -0.0229
    1CHOL    R230723  12.592  12.853   6.245  0.3007 -0.1704 -0.0131
    1CHOL    R330724  12.709  12.999   6.048  0.0336  0.0368 -0.0196
    1CHOL    R430725  12.518  12.827   5.908  0.3176 -0.2885 -0.0074
    1CHOL    R530726  12.731  12.846   5.865  0.2799  0.0777 -0.0250
    1CHOL    C130727  12.586  12.949   5.528  0.0748 -0.1637 -0.0101
    1CHOL    C230728  12.549  12.915   5.149  0.0125 -0.0414  0.0022
    1CHOL   ROH30729  18.606  18.094   3.024  0.1443  0.1396 -0.0329
    1CHOL    R130730  18.557  17.982   3.279  0.0315  0.1249 -0.0609
    1CHOL    R230731  18.760  17.926   3.458 -0.0265 -0.0975 -0.0647
    1CHOL    R330732  18.611  18.080   3.626  0.1050 -0.0033 -0.0357
    1CHOL    R430733  18.748  17.890   3.802  0.0248 -0.0839 -0.0618
    1CHOL    R530734  18.534  17.928   3.794  0.0477  0.0486 -0.0155
    1CHOL    C130735  18.602  18.014   4.159  0.1796  0.0127 -0.0324
    1CHOL    C230736  18.587  18.057   4.492 -0.0159 -0.1072  0.1660
    1CHOL   ROH30737   8.326  18.243   2.609 -0.1083 -0.0152 -0.0033
    1CHOL    R130738   8.422  18.404   2.822 -0.1073  0.0105 -0.0226
    1CHOL    R230739   8.266  18.470   3.040 -0.0437 -0.1254  0.0646
    1CHOL    R330740   8.474  18.365   3.180  0.0914 -0.0166 -0.0543
    1CHOL    R430741   8.328  18.530   3.374  0.1316 -0.0715  0.0224
    1CHOL    R530742   8.541  18.542   3.327  0.0982  0.0257 -0.1079
    1CHOL    C130743   8.559  18.466   3.701  0.3610  0.0614 -0.1136
    1CHOL    C230744   8.331  18.462   3.969  0.1308  0.1639 -0.0344
    1CHOL   ROH30745  21.934  16.542   2.790 -0.3749  0.0471  0.1774
    1CHOL    R130746  21.992  16.650   3.045 -0.3004  0.1049  0.1360
    1CHOL    R230747  21.831  16.608   3.265 -0.2021  0.1054  0.2073
    1CHOL    R330748  22.062  16.520   3.378 -0.1383  0.1779  0.1310
    1CHOL    R430749  21.853  16.453   3.573 -0.0505  0.1221  0.2053
    1CHOL    R530750  22.035  16.567   3.611 -0.0725  0.1793  0.1383
    1CHOL    C130751  22.084  16.280   3.858  0.0977  0.2038  0.1327
    1CHOL    C230752  22.182  16.163   4.107 -0.0938  0.3782 -0.0482
    1CHOL   ROH30753   8.730  16.180   5.886 -0.1514 -0.2484 -0.0668
    1CHOL    R130754   8.766  16.292   5.628 -0.2103 -0.0963 -0.0081
    1CHOL    R230755   8.995  16.254   5.480 -0.1359  0.2150  0.0280
    1CHOL    R330756   8.820  16.168   5.291  0.0002  0.1143 -0.0518
    1CHOL    R430757   9.084  16.093   5.187  0.0744  0.0687  0.1724
    1CHOL    R530758   8.932  16.209   5.083  0.1445  0.0124  0.0060
    1CHOL    C130759   8.971  15.918   4.839  0.3237 -0.1125  0.1819
    1CHOL    C230760   9.198  16.003   4.542  0.3645  0.2315  0.1400
    1CHOL   ROH30761   0.066  15.883   5.496  0.1702 -0.0924 -0.0029
    1CHOL    R130762   0.202  15.937   5.254  0.0543 -0.0510 -0.0587
    1CHOL    R230763   0.086  15.896   5.007 -0.0352 -0.0841 -0.0110
    1CHOL    R330764   0.155  16.156   4.968 -0.1290 -0.0641 -0.0387
    1CHOL    R430765   0.096  16.054   4.699  0.2233 -0.2022 -0.0625
    1CHOL    R530766   0.279  16.155   4.763  0.0994 -0.0801  0.0994
    1CHOL    C130767   0.167  16.390   4.484  0.2858 -0.2509 -0.1187
    1CHOL    C230768   0.294  16.581   4.143  0.0663  0.0193  0.4119
    1CHOL   ROH30769   2.733   2.923   6.065  0.2787  0.0177  0.0747
    1CHOL    R130770   2.950   2.854   5.898  0.2668  0.1091  0.0219
    1CHOL    R230771   2.929   2.665   5.697  0.3549 -0.0526  0.1650
    1CHOL    R330772   3.024   2.867   5.542  0.0879 -0.0712 -0.0222
    1CHOL    R430773   3.154   2.625   5.437  0.3415 -0.0086  0.1464
    1CHOL    R530774   3.253   2.808   5.501  0.1463  0.1585 -0.0265
    1CHOL    C130775   3.373   2.791   5.140  0.0830 -0.0003 -0.0402
    1CHOL    C230776   3.490   2.738   4.820 -0.1990  0.1888 -0.1868
    1CHOL   ROH30777   4.139  26.313   3.228  0.2841  0.0665  0.0218
    1CHOL    R130778   4.043  26.323   3.494  0.0963  0.2012 -0.0502
    1CHOL    R230779   3.782  26.388   3.557 -0.0335 -0.0874 -0.2871
    1CHOL    R330780   3.788  26.152   3.690  0.1963  0.0510 -0.0501
    1CHOL    R430781   3.617  26.325   3.853 -0.1760 -0.0296 -0.3541
    1CHOL    R530782   3.792  26.214   3.922 -0.0719  0.2832 -0.1082
    1CHOL    C130783   3.526  26.066   4.152 -0.0428  0.1368 -0.1703
    1CHOL    C230784   3.563  26.342   4.428 -0.0314  0.0452 -0.1413
    1CHOL   ROH30785  24.269  14.758   5.679  0.0463  0.1473  0.0641
    1CHOL    R130786  24.115  14.769   5.442 -0.0553  0.0987  0.1276
    1CHOL    R230787  24.215  14.865   5.204 -0.1637  0.0685  0.0696
    1CHOL    R330788  24.132  14.624   5.109 -0.1861  0.0471  0.1430
    1CHOL    R430789  24.088  14.811   4.887  0.0792 -0.0663 -0.0043
    1CHOL    R530790  23.941  14.677   4.974 -0.0505  0.0482 -0.0474
    1CHOL    C130791  23.937  14.554   4.613  0.1981 -0.1641  0.0213
    1CHOL    C230792  23.591  14.664   4.542  0.1359 -0.1894 -0.0462
    1CHOL   ROH30793   6.464   6.756   4.388 -0.0196  0.0278 -0.0483
    1CHOL    R130794   6.626   6.800   4.615 -0.0772  0.0587 -0.0136
    1CHOL    R230795   6.543   6.953   4.830 -0.1600  0.0263 -0.0230
    1CHOL    R330796   6.607   6.730   4.972 -0.1310  0.0364 -0.0212
    1CHOL    R430797   6.598   6.945   5.171 -0.1676  0.0350 -0.0215
    1CHOL    R530798   6.763   6.806   5.136 -0.1466  0.0596 -0.0169
    1CHOL    C130799   6.689   6.731   5.503 -0.1451  0.0491 -0.0188
    1CHOL    C230800   6.555   6.737   5.891 -0.0250 -0.1481 -0.3173
    1CHOL   ROH30801  17.948  20.716   3.420 -0.0494  0.0838  0.0486
    1CHOL    R130802  18.033  20.636   3.678 -0.1402  0.0830  0.0782
    1CHOL    R230803  18.027  20.806   3.896 -0.1220  0.1124  0.0553
    1CHOL    R330804  17.883  20.605   4.008 -0.2289  0.1859  0.0483
    1CHOL    R430805  18.018  20.734   4.234  0.0343 -0.0496  0.0248
    1CHOL    R530806  18.023  20.522   4.184 -0.1888 -0.0296 -0.0851
    1CHOL    C130807  17.878  20.504   4.536  0.0257 -0.0753  0.0005
    1CHOL    C230808  17.736  20.600   4.932 -0.0495  0.3959  0.0688
    1CHOL   ROH30809  19.243   6.113   5.899 -0.1485  0.0094 -0.1697
    1CHOL    R130810  19.283   6.336   5.731 -0.0639  0.1087 -0.0186
    1CHOL    R230811  19.128   6.384   5.507  0.0696  0.2224 -0.0868
    1CHOL    R330812  19.089   6.626   5.625 -0.0236  0.1522  0.0269
    1CHOL    R430813  18.941   6.641   5.372  0.1841  0.3071 -0.0846
    1CHOL    R530814  19.092   6.781   5.442  0.1287  0.2618  0.1233
    1CHOL    C130815  18.796   7.019   5.403  0.1647  0.2906  0.0233
    1CHOL    C230816  18.596   7.334   5.221  0.0120 -0.1407  0.3274
    1CHOL   ROH30817  13.618   7.081   3.649 -0.1683 -0.0807  0.1240
    1CHOL    R130818  13.528   6.911   3.857 -0.0401 -0.0823  0.1786
    1CHOL    R230819  13.687   6.842   4.072  0.0132  0.1056  0.1999
    1CHOL    R330820  13.476   6.936   4.216 -0.0569 -0.0058  0.1713
    1CHOL    R430821  13.670   6.845   4.417 -0.0720  0.0174  0.1965
    1CHOL    R530822  13.460   6.786   4.402 -0.0472 -0.0560  0.1314
    1CHOL    C130823  13.462   6.935   4.753 -0.1879 -0.1383  0.1675
    1CHOL    C230824  13.294   6.757   5.025 -0.0632  0.2112  0.1680
    1CHOL   ROH30825  20.945  16.265   2.729  0.0091 -0.0109 -0.0441
    1CHOL    R130826  21.024  16.089   2.935  0.0620  0.1154  0.0446
    1CHOL    R230827  21.038  16.166   3.200 -0.1546  0.1958  0.0324
    1CHOL    R330828  20.875  15.951   3.237  0.0244  0.0553 -0.0013
    1CHOL    R430829  20.995  16.000   3.500 -0.0257  0.1202  0.0092
    1CHOL    R530830  20.995  15.812   3.391  0.1364  0.1349 -0.0165
    1CHOL    C130831  20.818  15.702   3.711  0.2197 -0.0567 -0.0361
    1CHOL    C230832  20.620  15.641   4.075  0.1077  0.1916  0.0908
    1CHOL   ROH30833  12.140  10.515   3.265 -0.0480 -0.2202 -0.0335
    1CHOL    R130834  12.271  10.637   3.484 -0.1283 -0.1168 -0.0429
    1CHOL    R230835  12.153  10.835   3.637 -0.2761 -0.2143 -0.0313
    1CHOL    R330836  12.215  10.668   3.843 -0.1244 -0.1656 -0.0381
    1CHOL    R430837  12.221  10.937   3.960 -0.0262 -0.1378 -0.1078
    1CHOL    R530838  12.380  10.788   3.968 -0.0238 -0.1411 -0.1928
    1CHOL    C130839  12.319  10.840   4.341  0.2614 -0.0487 -0.1587
    1CHOL    C230840  12.255  10.970   4.651  0.0356  0.3541 -0.3079
    1CHOL   ROH30841   9.646  13.502   6.629 -0.2675 -0.1023 -0.3245
    1CHOL    R130842   9.803  13.527   6.396 -0.1988  0.2217 -0.2441
    1CHOL    R230843   9.972  13.741   6.352 -0.0169  0.1711  0.2048
    1CHOL    R330844  10.158  13.546   6.317 -0.1662  0.0875 -0.1310
    1CHOL    R430845  10.225  13.750   6.116  0.0172  0.4034  0.2501
    1CHOL    R530846  10.191  13.538   6.079 -0.1459  0.4964 -0.1440
    1CHOL    C130847  10.547  13.572   5.947 -0.1019  0.4592 -0.0383
    1CHOL    C230848  10.780  13.606   5.626  0.0385  0.0852 -0.0402
    1CHOL   ROH30849   9.944  17.126   2.854 -0.3991  0.0457 -0.1612
    1CHOL    R130850   9.936  17.202   3.126 -0.1769 -0.0792 -0.1197
    1CHOL    R230851   9.735  17.361   3.231  0.0714  0.1199  0.0531
    1CHOL    R330852   9.708  17.156   3.407 -0.1041  0.0656 -0.0364
    1CHOL    R430853   9.617  17.393   3.554  0.2313  0.1011  0.1134
    1CHOL    R530854   9.770  17.251   3.618  0.0882 -0.1106 -0.0136
    1CHOL    C130855   9.523  17.219   3.908  0.1604  0.0391  0.0646
    1CHOL    C230856   9.344  17.247   4.321 -0.1186  0.0422 -0.0209
    1CHOL   ROH30857   2.727  19.389   5.594 -0.2630 -0.3556 -0.1229
    1CHOL    R130858   2.807  19.552   5.377 -0.2669 -0.1354  0.0401
    1CHOL    R230859   2.921  19.449   5.148 -0.0432  0.1190  0.0354
    1CHOL    R330860   2.721  19.585   5.025 -0.0825  0.0403  0.0111
    1CHOL    R430861   2.923  19.546   4.816 -0.1576 -0.1097 -0.0329
    1CHOL    R530862   2.834  19.736   4.877 -0.1307 -0.0668 -0.1333
    1CHOL    C130863   2.736  19.732   4.508 -0.2608 -0.3187 -0.0956
    1CHOL    C230864   3.095  19.695   4.356 -0.0160  0.0322  0.1706
    1CHOL   ROH30865  16.596   9.296   5.900  0.1075  0.0298 -0.1438
    1CHOL    R130866  16.636   9.125   5.678 -0.0439 -0.0157 -0.1354
    1CHOL    R230867  16.440   9.080   5.488 -0.0831  0.1462 -0.1326
    1CHOL    R330868  16.636   9.158   5.315 -0.0138 -0.0344 -0.1368
    1CHOL    R430869  16.401   9.112   5.146 -0.0563  0.1650 -0.1340
    1CHOL    R530870  16.599   9.025   5.120 -0.1326 -0.0114 -0.1304
    1CHOL    C130871  16.561   9.204   4.785  0.0242  0.0069 -0.1390
    1CHOL    C230872  16.786   9.227   4.392  0.1587  0.1018 -0.0162
    1CHOL   ROH30873  22.523  21.306   6.098  0.0923 -0.2385 -0.0817
    1CHOL    R130874  22.638  21.288   5.840 -0.0124 -0.0534 -0.1421
    1CHOL    R230875  22.611  21.486   5.651  0.1882  0.2322  0.1268
    1CHOL    R330876  22.882  21.476   5.646  0.1724 -0.1196  0.0279
    1CHOL    R430877  22.805  21.508   5.365  0.1297  0.3967  0.0985
    1CHOL    R530878  22.934  21.352   5.447 -0.0496  0.1059 -0.1695
    1CHOL    C130879  23.173  21.510   5.195  0.0793  0.1629 -0.0110
    1CHOL    C230880  23.379  21.226   5.129  0.0838 -0.1729 -0.0578
    1CHOL   ROH30881  13.347  12.575   2.943 -0.2628  0.0484 -0.0937
    1CHOL    R130882  13.238  12.558   3.204 -0.0963 -0.2775 -0.0451
    1CHOL    R230883  13.279  12.340   3.368  0.4721 -0.2386 -0.1332
    1CHOL    R330884  13.367  12.528   3.543  0.1376 -0.0961 -0.1178
    1CHOL    R430885  13.324  12.289   3.707  0.4497 -0.1516 -0.1171
    1CHOL    R530886  13.241  12.487   3.743  0.1407 -0.2737 -0.1525
    1CHOL    C130887  13.433  12.436   4.069  0.1228  0.0331 -0.0930
    1CHOL    C230888  13.330  12.287   4.388  0.1513  0.2698 -0.3954
    1CHOL   ROH30889  13.717   9.494   6.420  0.0414 -0.0193 -0.0641
    1CHOL    R130890  13.766   9.435   6.148 -0.0358 -0.0148 -0.0787
    1CHOL    R230891  13.650   9.219   6.019 -0.0720 -0.0119 -0.0500
    1CHOL    R330892  13.568   9.410   5.843 -0.1202 -0.0088 -0.0240
    1CHOL    R430893  13.547   9.157   5.695 -0.1240 -0.0010 -0.0353
    1CHOL    R530894  13.654   9.336   5.632 -0.1521  0.0114 -0.0439
    1CHOL    C130895  13.410   9.299   5.341 -0.2006  0.0081 -0.0022
    1CHOL    C230896  13.143   9.377   5.090  0.0709 -0.2217 -0.1683
    1CHOL   ROH30897  20.165  12.576   5.828  0.0294  0.0245 -0.0205
    1CHOL    R130898  20.049  12.727   5.619 -0.1268 -0.1278 -0.0436
    1CHOL    R230899  20.177  12.773   5.379 -0.1423  0.0305 -0.0225
    1CHOL    R330900  19.950  12.668   5.274  0.0070 -0.2599 -0.0590
    1CHOL    R430901  20.083  12.801   5.048 -0.1354 -0.0720 -0.0336
    1CHOL    R530902  19.877  12.832   5.115 -0.1860 -0.3438 -0.0587
    1CHOL    C130903  19.814  12.718   4.756  0.0105 -0.4052 -0.0742
    1CHOL    C230904  20.069  12.600   4.508  0.0339  0.0591 -0.5564
    1CHOL   ROH30905  13.898  19.786   2.673 -0.2018 -0.1503 -0.0880
    1CHOL    R130906  13.934  19.797   2.953 -0.1817 -0.3204 -0.0834
    1CHOL    R230907  13.938  20.036   3.093  0.2343 -0.3797  0.0072
    1CHOL    R330908  13.744  19.916   3.240  0.0240 -0.0948 -0.0392
    1CHOL    R430909  13.919  20.043   3.438  0.0443 -0.1726 -0.0075
    1CHOL    R530910  13.858  19.833   3.434 -0.1736 -0.1097  0.0708
    1CHOL    C130911  13.725  19.934   3.777 -0.2650  0.2141 -0.0597
    1CHOL    C230912  13.669  19.676   4.079  0.1467  0.0690  0.0183
    1CHOL   ROH30913  15.520  22.989   6.091 -0.3209  0.0005 -0.0943
    1CHOL    R130914  15.547  22.839   5.853 -0.2341 -0.0057 -0.0803
    1CHOL    R230915  15.384  22.878   5.634 -0.0698  0.0781 -0.1879
    1CHOL    R330916  15.620  22.909   5.503  0.0315 -0.0317 -0.0305
    1CHOL    R430917  15.436  22.803   5.301  0.1149  0.0620 -0.1552
    1CHOL    R530918  15.631  22.721   5.355  0.0405 -0.0334 -0.0284
    1CHOL    C130919  15.689  22.788   4.984  0.3184 -0.0507  0.0116
    1CHOL    C230920  15.914  22.612   4.736 -0.1687 -0.4362 -0.0389
    1CHOL   ROH30921  12.748   6.193   6.964 -0.1321  0.0777  0.0841
    1CHOL    R130922  12.868   6.143   6.713 -0.2170  0.1531  0.0286
    1CHOL    R230923  12.971   5.897   6.643  0.0906  0.2727  0.0590
    1CHOL    R330924  12.806   5.924   6.429 -0.0829 -0.0429  0.1503
    1CHOL    R430925  13.020   5.745   6.336  0.1831  0.3257  0.0472
    1CHOL    R530926  12.954   5.930   6.241 -0.2012  0.1996  0.0644
    1CHOL    C130927  12.894   5.683   5.956  0.0746  0.0600  0.1264
    1CHOL    C230928  12.892   5.715   5.514  0.0746  0.0414 -0.0046
    1CHOL   ROH30929  13.189   6.913   3.484 -0.0845  0.1047 -0.0617
    1CHOL    R130930  13.040   7.092   3.644 -0.0119  0.1183 -0.0094
    1CHOL    R230931  12.793   7.027   3.749 -0.0262  0.1773 -0.0057
    1CHOL    R330932  12.910   7.097   3.984  0.0149  0.0845  0.0015
    1CHOL    R430933  12.629   7.176   4.014  0.0434  0.1693  0.0415
    1CHOL    R530934  12.803   7.303   4.044  0.0873  0.1054  0.0579
    1CHOL    C130935  12.643   7.329   4.390  0.1222  0.0773  0.0758
    1CHOL    C230936  12.401   7.163   4.688 -0.2388  0.0352 -0.0447
    1CHOL   ROH30937  12.912  19.239   2.796  0.0441 -0.4894  0.1307
    1CHOL    R130938  12.970  19.159   3.062  0.2313 -0.2184  0.1720
    1CHOL    R230939  13.105  19.321   3.240  0.0552  0.0995  0.0179
    1CHOL    R330940  12.888  19.275   3.397  0.1638 -0.0922  0.1127
    1CHOL    R430941  13.109  19.314   3.585  0.2213  0.0544  0.0154
    1CHOL    R530942  12.973  19.144   3.579  0.3514 -0.0515  0.0551
    1CHOL    C130943  12.907  19.267   3.934  0.4205 -0.1519  0.1027
    1CHOL    C230944  12.791  19.094   4.207 -0.1162  0.1253 -0.0201
    1CHOL   ROH30945  12.177  15.351   6.443  0.2135 -0.3339 -0.0354
    1CHOL    R130946  12.240  15.424   6.177  0.2174 -0.2046  0.0012
    1CHOL    R230947  12.416  15.279   6.021  0.0788 -0.2334 -0.1291
    1CHOL    R330948  12.208  15.275   5.846  0.0405  0.0401 -0.0920
    1CHOL    R430949  12.443  15.212   5.683 -0.0753 -0.3147 -0.1254
    1CHOL    R530950  12.296  15.369   5.645  0.1397 -0.1111 -0.1194
    1CHOL    C130951  12.263  15.169   5.322 -0.2001 -0.1046 -0.0885
    1CHOL    C230952  12.424  14.906   4.973 -0.1900 -0.2468  0.2212
    1CHOL   ROH30953  26.589  19.650   3.176 -0.3236  0.2114  0.0067
    1CHOL    R130954  26.600  19.435   3.359 -0.1020  0.0954 -0.1429
    1CHOL    R230955  26.754  19.442   3.588 -0.0040  0.0415 -0.2081
    1CHOL    R330956  26.519  19.381   3.710  0.0900 -0.1918 -0.1414
    1CHOL    R430957  26.726  19.290   3.897  0.2337  0.2079 -0.1035
    1CHOL    R530958  26.560  19.172   3.818  0.3805 -0.0658 -0.0064
    1CHOL    C130959  26.488  19.145   4.192  0.4592  0.0870  0.0198
    1CHOL    C230960  26.311  19.183   4.524 -0.2830  0.0386  0.0797
    1CHOL   ROH30961  15.145   8.898   6.217 -0.1906 -0.1129  0.0199
    1CHOL    R130962  15.009   8.868   5.971 -0.0949 -0.1450 -0.0293
    1CHOL    R230963  15.038   9.046   5.762 -0.2705  0.0107  0.0790
    1CHOL    R330964  15.100   8.822   5.622  0.0455  0.1690 -0.0341
    1CHOL    R430965  14.974   9.000   5.426 -0.3672  0.0210  0.0963
    1CHOL    R530966  14.916   8.794   5.470  0.0124 -0.0949  0.0525
    1CHOL    C130967  14.995   8.763   5.098 -0.1286  0.1753 -0.0000
    1CHOL    C230968  15.090   8.654   4.800  0.0529 -0.0765 -0.0161
    1CHOL   ROH30969  23.012  17.277   6.309 -0.1358  0.1748 -0.0674
    1CHOL    R130970  23.012  17.449   6.084 -0.1841  0.1526 -0.0846
    1CHOL    R230971  23.188  17.419   5.873 -0.0833  0.2660 -0.0167
    1CHOL    R330972  22.960  17.415   5.725 -0.0248  0.0765 -0.1001
    1CHOL    R430973  23.176  17.454   5.530  0.0124  0.2689 -0.0193
    1CHOL    R530974  22.998  17.578   5.554 -0.1020  0.1163 -0.0792
    1CHOL    C130975  22.955  17.471   5.190  0.1234  0.0944 -0.0999
    1CHOL    C230976  22.569  17.471   5.004 -0.0237 -0.3012 -0.1050
    1CHOL   ROH30977  21.819  12.259   2.783 -0.2653 -0.0386 -0.0676
    1CHOL    R130978  21.763  12.365   3.039 -0.0324  0.0916 -0.0705
    1CHOL    R230979  21.627  12.222   3.233 -0.1419  0.3105  0.0135
    1CHOL    R330980  21.845  12.282   3.384 -0.0104  0.0650 -0.0826
    1CHOL    R430981  21.628  12.248   3.578  0.0143  0.4215  0.0052
    1CHOL    R530982  21.760  12.420   3.560  0.2375  0.2370 -0.0973
    1CHOL    C130983  21.832  12.318   3.920  0.2280  0.2556 -0.0898
    1CHOL    C230984  21.891  12.584   4.240  0.3980 -0.1326 -0.1018
    1CHOL   ROH30985   6.440   4.988   4.132 -0.0301 -0.0757  0.0395
    1CHOL    R130986   6.377   4.778   4.310 -0.0343  0.0579  0.1955
    1CHOL    R230987   6.515   4.538   4.312 -0.3268 -0.1109  0.0745
    1CHOL    R330988   6.548   4.596   4.576  0.1212 -0.0686  0.0095
    1CHOL    R430989   6.550   4.303   4.563 -0.2074 -0.0749  0.0913
    1CHOL    R530990   6.423   4.427   4.690  0.1090  0.0973  0.2427
    1CHOL    C130991   6.602   4.221   4.957  0.2830 -0.0138  0.0406
    1CHOL    C230992   6.494   4.077   5.224 -0.0145  0.2266 -0.0075
    1CHOL   ROH30993  27.064  29.550   3.827  0.0940  0.0807  0.0200
    1CHOL    R130994  27.170  29.420   4.055  0.0315 -0.0362 -0.0172
    1CHOL    R230995  27.083  29.172   4.138  0.0359 -0.0953 -0.1891
    1CHOL    R330996  27.348  29.110   4.124  0.0487 -0.0508 -0.1324
    1CHOL    R430997  27.259  28.998   4.380  0.0000 -0.1078 -0.1738
    1CHOL    R530998  27.427  29.134   4.349 -0.0114 -0.0763 -0.1082
    1CHOL    C130999  27.609  28.839   4.508 -0.0086 -0.0751 -0.1115
    1CHOL    C231000  27.965  28.878   4.514  0.0555  0.1444 -0.3279
    1CHOL   ROH31001   0.716  12.307   5.620  0.0448 -0.2440 -0.1328
    1CHOL    R131002   0.657  12.314   5.343  0.0036 -0.1969 -0.1230
    1CHOL    R231003   0.520  12.523   5.225 -0.0193 -0.1801 -0.0665
    1CHOL    R331004   0.737  12.529   5.061 -0.0440 -0.1459 -0.0974
    1CHOL    R431005   0.552  12.727   4.948 -0.0434 -0.0925 -0.0048
    1CHOL    R531006   0.644  12.560   4.842 -0.0747 -0.0663 -0.0730
    1CHOL    C131007   0.773  12.851   4.632 -0.0806 -0.0096  0.0027
    1CHOL    C231008   0.617  12.811   4.286 -0.1252 -0.1948  0.0862
    1W        W31009   8.022  12.131   7.645  0.3356 -0.0786 -0.0126
    1W        W31010  27.650  29.136   8.242  0.3479  0.0246 -0.0057
    1W        W31011  29.529   2.651   2.308 -0.1197  0.1589  0.0308
    1W        W31012   8.688  18.616   0.523 -0.0016  0.0665  0.2621
    1W        W31013  12.900   0.874   8.993  0.0834  0.2248 -0.1053
    1W        W31014  28.037  23.293   0.917  0.0686 -0.0343 -0.2341
    1W        W31015  15.799  17.570   1.733 -0.1837  0.2206  0.1779
    1W        W31016  29.609   4.927   0.704 -0.1822 -0.0920 -0.1394
    1W        W31017   7.623  15.336   0.312  0.2417  0.0420 -0.1153
    1W        W31018  22.663   9.742   2.699 -0.2710  0.0249  0.0289
    1W        W31019   7.403   7.874   9.129 -0.1205 -0.0920 -0.0364
    1W        W31020  19.449  20.264   7.144  0.2042  0.2460  0.1080
    1W        W31021   7.873   6.638   2.710 -0.1246  0.0340 -0.1086
    1W        W31022  26.118  24.147   0.847  0.0369 -0.1269  0.2814
    1W        W31023  25.288   6.305   8.163  0.3916  0.2898 -0.0445
    1W        W31024   3.693   3.422   8.179 -0.0599  0.1055  0.2241
    1W        W31025  23.073  18.258   1.657  0.0693 -0.1230 -0.1722
    1W        W31026  22.831  28.908   9.313 -0.0860 -0.1178  0.2502
    1W        W31027   1.541   2.944   7.380 -0.0780  0.0875  0.1941
    1W        W31028   9.955   0.325   7.902 -0.1785 -0.0130 -0.1536
    1W        W31029   8.251   0.467   7.739 -0.1010  0.1831  0.1564
    1W        W31030   9.130  15.874   8.985 -0.2185 -0.0787  0.1737
    1W        W31031  28.520  26.598   8.958 -0.1056 -0.1412  0.0356
    1W        W31032   5.841  15.967   7.844 -0.0649  0.0429 -0.1996
    1W        W31033   1.516  19.210   8.282 -0.0527  0.0125  0.0819
    1W        W31034   9.014  16.084   6.456 -0.0545 -0.1705  0.2451
    1W        W31035   7.254  27.877   8.207  0.1852  0.1308 -0.0546
    1W        W31036  13.808  19.188   2.674 -0.3230 -0.2503 -0.0398
    1W        W31037  12.414  20.775   1.797  0.1036  0.1171 -0.1984
    1W        W31038  20.754   8.022   8.676  0.0204 -0.1908  0.0040
    1W        W31039  26.284  24.364   7.648 -0.0263  0.1010 -0.0352
    1W        W31040   7.817  19.778   0.739  0.1991  0.5420  0.2770
    1W        W31041  15.683   6.171   8.794  0.2570 -0.1041 -0.1494
    1W        W31042  23.277   3.856   2.207  0.3298  0.0040  0.1790
    1W        W31043   0.419   9.974   5.880 -0.2308 -0.1166 -0.2520
    1W        W31044  27.866   0.042   0.517  0.0218 -0.4792 -0.3274
    1W        W31045   4.669   0.016   0.532 -0.1637 -0.4123 -0.0479
    1W        W31046  11.913  19.281   8.337 -0.2193  0.0960 -0.1077
    1W        W31047  23.272  25.580   0.135 -0.0112  0.0323 -0.0199
    1W        W31048  25.049   3.529   1.774  0.0817 -0.1807  0.2243
    1W        W31049  14.177  14.636   8.575 -0.1289 -0.1605  0.0563
    1W        W31050   1.114  23.958   8.358 -0.3337 -0.0870 -0.1247
    1W        W31051  10.671  20.207   7.770  0.0727  0.0181  0.2950
    1W        W31052  25.330   9.032   1.766 -0.0093  0.2401 -0.0887
    1W        W31053  21.913  24.691   2.159  0.0080 -0.0370 -0.0690
    1W        W31054  20.761   9.557   7.902  0.0441  0.0177 -0.3681
    1W        W31055  13.183  12.064   0.282 -0.0384  0.4001  0.1095
    1W        W31056  24.083  19.860   1.111 -0.1639 -0.0486 -0.0572
    1W        W31057  28.885  14.509   0.428 -0.0772 -0.1819 -0.0857
    1W        W31058   5.659  26.757   7.323 -0.1217  0.1051  0.2860
    1W        W31059  20.799   8.915   1.269 -0.1321 -0.0487  0.1373
    1W        W31060  25.705  14.854   1.400  0.0438 -0.0442  0.1818
    1W        W31061  13.783   9.857   0.014  0.1433 -0.3700  0.2385
    1W        W31062  28.503   5.395   1.298  0.0498  0.0622 -0.3826
    1W        W31063  14.763  21.442   6.937 -0.1467 -0.3075  0.1764
    1W        W31064   2.826  27.746   6.623  0.1031  0.1123  0.1998
    1W        W31065  22.654  16.352   0.107  0.0287 -0.1046 -0.2304
    1W        W31066  13.353  19.958   6.946 -0.0054  0.0587 -0.0174
    1W        W31067  15.188  25.232   2.092 -0.1046 -0.0465 -0.2307
    1W        W31068  12.485  25.473   2.352 -0.1839  0.0095 -0.1190
    1W        W31069  12.107  22.801   8.196 -0.1153 -0.1506  0.1293
    1W        W31070   5.690   8.613   1.194  0.1130  0.0786 -0.1664
    1W        W31071   2.752  19.317   2.063 -0.0168 -0.0607  0.0652
    1W        W31072   4.992  20.261   7.349  0.2803  0.1557 -0.3244
    1W        W31073   0.769  10.313   7.076  0.1264 -0.0043  0.0274
    1W        W31074  12.350  18.954   0.631 -0.0833  0.0214 -0.0406
    1W        W31075  15.844  17.838   8.469  0.0986 -0.0824 -0.6267
    1W        W31076  13.142   3.909   2.694  0.0065  0.2426 -0.0149
    1W        W31077  26.915   7.715   8.332 -0.0046 -0.1517 -0.1512
    1W        W31078  18.940   3.449   8.789  0.0146 -0.1286 -0.3296
    1W        W31079  10.758  18.258   7.459  0.0953 -0.3460  0.5273
    1W        W31080  21.482   8.209   2.257 -0.1284  0.0715 -0.3599
    1W        W31081  18.464   6.715   2.374 -0.0583  0.0655  0.1373
    1W        W31082  27.949  21.477   8.877 -0.0883 -0.0125 -0.1269
    1W        W31083  29.402  13.649   7.435 -0.2509 -0.2782 -0.0783
    1W        W31084  16.934  18.505   2.648 -0.0136 -0.2527 -0.1716
    1W        W31085   9.511   8.856   3.438  0.2410 -0.1662  0.0586
    1W        W31086  29.502   8.325   1.202 -0.0827 -0.1146  0.1370
    1W        W31087  20.585  13.592   6.091 -0.1336 -0.2071  0.1719
    1W        W31088  28.675  20.461   1.448 -0.3425 -0.1081 -0.0042
    1W        W31089   8.751  19.609   1.520 -0.0404 -0.0666  0.0516
    1W        W31090   2.271  25.268   2.247 -0.0955 -0.0159 -0.1412
    1W        W31091   3.936  13.948   0.190  0.3673  0.0376 -0.0331
    1W        W31092  17.043   9.433   8.883 -0.1599  0.0959 -0.1215
    1W        W31093  17.963   0.212   8.976 -0.0772 -0.1088 -0.0331
    1W        W31094  19.832  10.211   2.259  0.0532  0.1294 -0.0738
    1W        W31095   9.482  14.210   0.625 -0.1014  0.0136 -0.1541
    1W        W31096  10.683   9.843   2.415  0.0424 -0.2689  0.0306
    1W        W31097  10.767  18.241   8.005 -0.1568 -0.1013  0.0550
    1W        W31098   1.955   0.520   7.427 -0.0828  0.0624 -0.2457
    1W        W31099  16.899   7.845   7.444 -0.2096  0.1915 -0.1187
    1W        W31100  24.006  27.179   1.682  0.0420  0.1144 -0.1105
    1W        W31101   4.403   4.626   8.818 -0.0568  0.0273  0.4271
    1W        W31102  16.325   9.359   2.389 -0.2578 -0.1088 -0.1589
    1W        W31103  26.215   1.246   9.167  0.1407  0.0572 -0.0464
    1W        W31104  17.770  21.024   9.292 -0.1620 -0.0349 -0.0882
    1W        W31105   9.890   1.446   7.106 -0.4688 -0.1223  0.5725
    1W        W31106  10.150  25.623   0.464 -0.0775  0.3440 -0.1113
    1W        W31107  13.640   6.085   7.704  0.0964  0.0726  0.0211
    1W        W31108   6.378  18.241   7.812  0.2816  0.0870 -0.0705
    1W        W31109   9.536   4.933   9.411 -0.1868 -0.1855 -0.0500
    1W        W31110  19.912  27.539   8.485 -0.0545 -0.2418  0.2577
    1W        W31111  24.320   7.343   2.721  0.0550 -0.0495 -0.1821
    1W        W31112   4.412  14.806   1.583 -0.0249  0.0070  0.0416
    1W        W31113   5.470  13.419   7.929 -0.0441 -0.0072 -0.2230
    1W        W31114  13.076   2.413   1.082  0.0266 -0.1884 -0.2684
    1W        W31115   0.920  11.718   1.425 -0.2178  0.0381 -0.1433
    1W        W31116  16.860  20.313   0.133 -0.3667 -0.2286  0.1496
    1W        W31117   3.068  26.654   0.751  0.4342 -0.1095 -0.1306
    1W        W31118  24.059  11.464   8.122 -0.3381 -0.3427 -0.3330
    1W        W31119  10.391  15.772   7.068  0.2700 -0.0642 -0.0923
    1W        W31120  27.376  23.647   1.509  0.1734  0.1030  0.0164
    1W        W31121  18.660  22.048   9.449  0.0118 -0.0572  0.0032
    1W        W31122  16.256  25.674   2.769  0.0636 -0.3318  0.1911
    1W        W31123  11.087   0.685   2.993 -0.1400  0.3080  0.2151
    1W        W31124  18.948  13.211   7.225 -0.2791 -0.1245  0.1078
    1W        W31125  10.646  12.533   8.829  0.1217  0.2074 -0.0020
    1W        W31126   8.508   6.993   3.111  0.0932 -0.0046  0.0206
    1W        W31127   0.416  14.313   1.003 -0.1241  0.1288  0.0549
    1W        W31128  28.273   0.342   2.709 -0.0133  0.0868 -0.2388
    1W        W31129  13.645   7.522   2.676 -0.0524  0.0828 -0.1964
    1W        W31130   1.374  10.259   7.202  0.2584  0.2817 -0.1634
    1W        W31131   1.871  18.058   1.064  0.0276 -0.2146 -0.2907
    1W        W31132   9.552  17.482   1.899 -0.1632  0.2003  0.1142
    1W        W31133  28.222   0.650   7.378  0.0666  0.3160 -0.0273
    1W        W31134  10.453  29.418   2.802 -0.2128  0.0559 -0.1631
    1W        W31135   4.057   5.216   3.434  0.0529  0.1437  0.2745
    1W        W31136   2.485   5.804   0.408 -0.2063 -0.1536  0.0742
    1W        W31137  20.356   3.605   1.499  0.0262 -0.1716  0.0663
    1W        W31138   2.742  28.671   7.537  0.2254  0.0646  0.0971
    1W        W31139  20.390   0.325   1.823  0.2391  0.0539  0.0816
    1W        W31140  24.807   9.235   7.091 -0.1962  0.1594  0.1823
    1W        W31141  21.928  21.607   7.796 -0.0410 -0.3559 -0.4037
    1W        W31142  16.266   1.866   2.461 -0.0172 -0.0299 -0.0140
    1W        W31143  23.597  16.681   8.136  0.0145  0.1389 -0.1228
    1W        W31144   6.288   2.900   0.937  0.2715 -0.2585 -0.0494
    1W        W31145  24.533  10.241   0.692  0.1658  0.1613 -0.2309
    1W        W31146  15.909   5.847   8.417 -0.2634 -0.0632  0.0886
    1W        W31147   6.714   7.391   1.235 -0.3806  0.2601 -0.1467
    1W        W31148   0.314   3.478   1.700  0.1960  0.0979  0.0569
    1W        W31149  16.659  29.403   3.133 -0.0548  0.2083 -0.0781
    1W        W31150  20.543  26.789   1.123 -0.2283  0.0927 -0.1631
    1W        W31151   7.120   8.898   8.283  0.1364 -0.1815  0.0838
    1W        W31152   3.464  14.918   7.671 -0.2207  0.1060 -0.0456
    1W        W31153  23.137  17.006   9.348 -0.4288  0.2998  0.0647
    1W        W31154   7.750  14.114   2.350  0.1178 -0.0257 -0.0677
    1W        W31155  21.163  19.970   8.386 -0.1918  0.0049 -0.1723
    1W        W31156  21.106   3.620   0.095 -0.1892  0.1802  0.1301
    1W        W31157  28.647  28.859   3.376  0.0330 -0.3362 -0.3922
    1W        W31158  23.687  10.092   2.156 -0.0139  0.0526 -0.1970
    1W        W31159   6.072  29.790   1.180  0.1542  0.0415  0.0201
    1W        W31160   6.063   1.802   8.637  0.0804  0.0066 -0.1579
    1W        W31161  11.423   1.525   7.659 -0.1681 -0.2938 -0.1080
    1W        W31162  22.449  23.666   9.186  0.0058 -0.0356 -0.0830
    1W        W31163  19.712  10.879   6.482 -0.1278 -0.0531 -0.1147
    1W        W31164   8.561  14.750   9.024  0.2830 -0.0140  0.0795
    1W        W31165  27.651   3.961   1.414  0.3720 -0.1615 -0.0465
    1W        W31166   3.364   4.081   1.973  0.1155  0.1092  0.1604
    1W        W31167  25.076   2.108   1.191  0.3048  0.0789  0.0250
    1W        W31168  17.597  25.014   7.955  0.0368  0.2375 -0.1167
    1W        W31169  19.920   9.587   7.085 -0.0557 -0.0395  0.0238
    1W        W31170  10.120   0.334   0.016 -0.2133  0.1915 -0.3306
    1W        W31171  22.012  20.100   2.470 -0.0441  0.1172 -0.1774
    1W        W31172   5.795  19.740   0.028  0.1372 -0.0845 -0.3126
    1W        W31173  25.284   7.495   2.238  0.0065 -0.2222  0.3036
    1W        W31174   7.755  11.120   2.372 -0.1758  0.0250 -0.0273
    1W        W31175   2.784  27.342   8.344 -0.2466 -0.1087  0.0678
    1W        W31176  18.179  28.500   8.747  0.2882  0.3347  0.0707
    1W        W31177   4.582   5.827   2.432 -0.0084 -0.0586 -0.0328
    1W        W31178  22.667   0.980   7.658 -0.0128 -0.1708  0.0708
    1W        W31179  13.109  24.651   9.345 -0.1948 -0.1895 -0.0601
    1W        W31180   5.245  16.378   6.886  0.0476  0.0190 -0.0815
    1W        W31181   2.670  23.277   8.466  0.2658 -0.0702  0.2413
    1W        W31182  28.721   0.640   1.164  0.0303 -0.1381 -0.1785
    1W        W31183  14.969  24.784   7.579  0.0717  0.2169  0.1372
    1W        W31184  17.641  17.361   1.067  0.0988  0.0505 -0.0686
    1W        W31185  21.733  15.862   1.188 -0.0007 -0.0741  0.1659
    1W        W31186  21.029  10.787   6.720  0.1217 -0.4015  0.4294
    1W        W31187  11.941  25.401   9.029 -0.3328 -0.1451 -0.0171
    1W        W31188   2.923   8.950   7.293  0.0923 -0.0811 -0.0284
    1W        W31189  26.670  27.244   7.198  0.2633  0.4837  0.1978
    1W        W31190   5.982  16.043   0.327  0.0722  0.0989 -0.1809
    1W        W31191  26.681  28.479   3.205  0.0818  0.1192  0.3170
    1W        W31192  23.255  29.394   7.708  0.1442  0.1039  0.1338
    1W        W31193  19.468  29.016   9.149  0.1490  0.2697  0.0414
    1W        W31194  22.702   5.332   3.179 -0.1826  0.0674 -0.0394
    1W        W31195  22.583  21.943   7.422  0.0913 -0.1886 -0.3856
    1W        W31196   5.729   0.568   7.276 -0.2655  0.2181 -0.3507
    1W        W31197   9.595   5.950   9.447 -0.1677 -0.1161  0.0056
    1W        W31198   2.317   0.891   1.136  0.3564 -0.1272 -0.2844
    1W        W31199  27.969  22.127   7.478 -0.2170  0.0908  0.2846
    1W        W31200  27.304  18.980   3.271  0.1851 -0.0781 -0.1082
    1W        W31201   8.557   1.371   8.353 -0.1282 -0.0104 -0.1172
    1W        W31202   1.021  25.243   9.046 -0.4292  0.0127  0.2440
    1W        W31203   2.952   4.487   6.264 -0.3129 -0.2134  0.0509
    1W        W31204   9.934  22.476   2.439 -0.0353 -0.2048  0.3747
    1W        W31205   5.200  23.892   0.940  0.0867  0.0120  0.1790
    1W        W31206  18.987  25.244   6.849 -0.2897 -0.0832 -0.0048
    1W        W31207  15.941   2.285   1.443 -0.4855  0.1802  0.2896
    1W        W31208  27.890  15.275   7.164 -0.0063 -0.2270  0.0987
    1W        W31209  29.631  28.156   7.744  0.1474  0.1637  0.3852
    1W        W31210  27.771   3.749   2.222  0.1273  0.0120 -0.0238
    1W        W31211  26.965   9.347   0.873  0.4754 -0.0520 -0.1549
    1W        W31212   6.299   9.505   2.770 -0.2373 -0.2175  0.1234
    1W        W31213  26.216  24.725   8.153  0.3402 -0.2052 -0.2866
    1W        W31214  24.228  23.860   0.926  0.0093  0.0951 -0.1754
    1W        W31215  15.888  24.557   7.736  0.4007  0.2382  0.0156
    1W        W31216  18.126  13.651   7.146 -0.5658  0.1876  0.1945
    1W        W31217  24.313  27.842   8.808 -0.4308 -0.0683 -0.4197
    1W        W31218  10.503  21.697   2.130 -0.0058 -0.1865 -0.0640
    1W        W31219  19.356  23.160   0.919 -0.2454  0.0248  0.0830
    1W        W31220   2.933   2.345   3.438  0.3323  0.3458  0.2432
    1W        W31221  13.921   0.833   7.778  0.0851  0.0436 -0.0239
    1W        W31222  29.499  10.770   6.442  0.1765  0.2791 -0.1213
    1W        W31223   0.279  17.397   0.274  0.0142 -0.2913 -0.2632
    1W        W31224   8.071  20.774   7.621  0.0960  0.1771  0.1074
    1W        W31225   6.199  21.829   0.751 -0.0037  0.2160 -0.0315
    1W        W31226   4.491  24.434   0.918 -0.0182  0.0330 -0.3835
    1W        W31227  10.161  25.646   7.378 -0.2312 -0.3822  0.0476
    1W        W31228  21.960   6.012   7.663  0.3090 -0.3661  0.2847
    1W        W31229  27.615  18.934   0.632 -0.0810 -0.2762  0.0859
    1W        W31230  12.565  23.083   6.988  0.0784  0.0564  0.3669
    1W        W31231   6.494   5.818   9.411  0.0300 -0.2266 -0.2255
    1W        W31232   5.195  20.841   6.100  0.3240  0.0393 -0.4259
    1W        W31233   0.004  16.167   1.782 -0.2214 -0.0032 -0.0934
    1W        W31234  18.163   8.483   0.439 -0.1007 -0.2013 -0.1489
    1W        W31235  16.114   3.327   1.102  0.1439  0.1281  0.1775
    1W        W31236   8.359  14.824   0.030  0.0056  0.2281 -0.0692
    1W        W31237  12.889  13.354   8.048 -0.3043  0.0412 -0.1231
    1W        W31238   6.283   6.172   8.928  0.2754 -0.4025 -0.3070
    1W        W31239   1.966  14.780   9.395  0.1486  0.0528 -0.3899
    1W        W31240  10.432   8.237   1.177  0.0846  0.2194  0.0910
    1W        W31241  22.285  19.211   7.872  0.4850 -0.0251  0.1144
    1W        W31242  14.561  22.863   1.712  0.2500  0.2718 -0.3509
    1W        W31243  18.858  18.789   8.524 -0.0712 -0.0866 -0.2495
    1W        W31244   6.669   7.840   3.695  0.0899 -0.2151  0.0172
    1W        W31245  10.960   6.286   7.793 -0.0077  0.0266 -0.1725
    1W        W31246  13.836   5.741   7.339 -0.1368 -0.1107 -0.2456
    1W        W31247  15.151  14.354   1.838 -0.2857  0.0863 -0.0289
    1W        W31248  19.521   8.981   9.427  0.0306  0.1565  0.1080
    1W        W31249   9.805   5.641   0.639 -0.1128  0.3316  0.0769
    1W        W31250  27.274  10.475   8.083 -0.0497 -0.0755  0.1050
    1W        W31251  15.409  28.357   7.654 -0.2444  0.1453  0.0921
    1W        W31252   3.251   7.073   2.746  0.2259 -0.1653  0.1223
    1W        W31253  10.844   1.815   1.145  0.3588  0.1324 -0.1922
    1W        W31254  18.563   8.563   6.179  0.1211 -0.3999 -0.1899
    1W        W31255   7.362  16.608   1.781  0.0736  0.0235  0.2093
    1W        W31256  28.497  11.173   1.067 -0.0019 -0.0373 -0.3279
    1W        W31257  19.993  22.566   7.544 -0.1209 -0.3859 -0.0448
    1W        W31258   1.052  18.128   6.050  0.0883 -0.2681  0.0544
    1W        W31259  29.129   7.004   0.907 -0.2673 -0.0813  0.1595
    1W        W31260   5.027  23.444   7.175 -0.1651 -0.4003 -0.2085
    1W        W31261  20.089  22.852   2.746 -0.0173  0.0286  0.0027
    1W        W31262  24.684  27.839   7.006  0.0501  0.0881 -0.0276
    1W        W31263   8.066   7.198   1.710  0.0433  0.0113  0.0088
    1W        W31264  28.801  15.215   1.786  0.0338  0.5478 -0.0605
    1W        W31265   3.032  18.537   7.515  0.1874 -0.1265  0.1695
    1W        W31266   7.241   9.227   3.383 -0.2095 -0.0266  0.0132
    1W        W31267  19.343  23.587   1.752  0.1474 -0.1324 -0.3699
    1W        W31268   5.134  16.787   6.630  0.1359  0.3834 -0.1696
    1W        W31269  24.694   0.108   1.769 -0.4642 -0.2367  0.3233
    1W        W31270   8.949  10.835   2.649  0.0281  0.3825  0.2435
    1W        W31271  14.700  21.002   6.623  0.1259  0.1971 -0.2441
    1W        W31272  11.371  20.076   0.630 -0.0126  0.1264 -0.0100
    1W        W31273   0.654   4.777   6.402  0.1134 -0.1945  0.1562
    1W        W31274  20.271   5.195   7.676 -0.1778  0.3580 -0.0374
    1W        W31275   6.030  10.892   1.657 -0.1323 -0.0541 -0.1363
    1W        W31276   0.815  23.884   1.718 -0.2059  0.3140  0.2694
    1W        W31277  13.993  10.537   8.281 -0.1547 -0.2504 -0.0442
    1W        W31278  23.843  29.607   3.185  0.1125 -0.2764  0.3011
    1W        W31279   0.755  11.487   9.392  0.0473 -0.0820  0.0483
    1W        W31280  23.614  20.807   1.713 -0.2685 -0.1863 -0.0740
    1W        W31281  15.690  23.241   8.883 -0.0818  0.2988 -0.2535
    1W        W31282  18.431  23.883   0.061 -0.0780 -0.1666 -0.0229
    1W        W31283  29.311  28.814   8.451 -0.0626 -0.3075 -0.2254
    1W        W31284  22.991  15.161   7.271 -0.2082 -0.0556 -0.1353
    1W        W31285  11.781  13.659   8.469 -0.1901 -0.2756 -0.0260
    1W        W31286  25.416   8.005   0.237 -0.2051  0.0376 -0.1256
    1W        W31287  10.151   7.038   9.229  0.1022  0.1420  0.1606
    1W        W31288   1.832  22.329   3.129 -0.0845 -0.1028 -0.0977
    1W        W31289  27.206  25.226   0.876  0.1548 -0.2425  0.0150
    1W        W31290  24.685  23.873   9.012  0.1963 -0.1720  0.2328
    1W        W31291  16.669  19.677   2.314  0.0683  0.1526 -0.1167
    1W        W31292   2.806   5.911   7.974  0.2385  0.1314  0.2032
    1W        W31293  23.536   6.775   1.757  0.2810  0.0041 -0.0330
    1W        W31294  22.312  14.371   0.090  0.0548 -0.2926 -0.1194
    1W        W31295  14.200  25.178   5.812 -0.1851 -0.0783 -0.1685
    1W        W31296  11.935  15.885   0.935 -0.1767  0.0197  0.1284
    1W        W31297  16.341   5.858   1.426  0.1502 -0.0284 -0.2131
    1W        W31298   3.696   8.445   1.407  0.1606  0.0889  0.1792
    1W        W31299   9.644   4.088   8.975 -0.0048  0.1428  0.2738
    1W        W31300  24.774  11.067   8.686  0.2016  0.0584 -0.2906
    1W        W31301   3.697   7.789   2.275  0.2255 -0.1280  0.0525
    1W        W31302  23.160   5.332   6.667 -0.2257 -0.1351 -0.0717
    1W        W31303   2.991  15.111   1.458 -0.2034 -0.2466 -0.2900
    1W        W31304  22.525  14.866   9.459  0.0245  0.0743 -0.0921
    1W        W31305  23.524  13.430   7.731  0.1555  0.2353 -0.0856
    1W        W31306  20.309  29.442   8.818 -0.3195 -0.0255 -0.0034
    1W        W31307  21.954  10.312   8.689 -0.0309 -0.0564  0.1476
    1W        W31308  18.775  22.324   0.604 -0.1887  0.2199 -0.1456
    1W        W31309  22.508  10.495   9.111 -0.0748 -0.2400  0.1862
    1W        W31310  20.252  17.707   7.892  0.1440  0.2167  0.2678
    1W        W31311   2.968  25.951   6.859  0.0279  0.1372 -0.0477
    1W        W31312  25.896   5.228   0.939 -0.1044  0.2319 -0.0061
    1W        W31313  19.291   4.512   8.483  0.4323  0.2152 -0.0288
    1W        W31314  25.183  11.351   7.510 -0.0263  0.1486 -0.2306
    1W        W31315  18.511   8.789   7.823  0.1229 -0.1134 -0.1294
    1W        W31316  25.419  16.627   9.173  0.0112  0.1982  0.0038
    1W        W31317   7.873  20.459   6.307 -0.2381  0.0469 -0.0125
    1W        W31318  15.128  29.821   6.587 -0.1215 -0.1417  0.1637
    1W        W31319  11.147   5.162   7.122 -0.3005 -0.1631  0.0860
    1W        W31320  25.068  28.657   1.078 -0.0377 -0.3084  0.0339
    1W        W31321  16.193   4.049   8.880  0.0942 -0.0973 -0.0538
    1W        W31322  15.379   2.765   2.585  0.4800  0.2282  0.0715
    1W        W31323  28.257   0.629   7.892 -0.0159  0.2223  0.1521
    1W        W31324  22.662  17.905   8.435  0.3348 -0.0342 -0.2544
    1W        W31325   4.413   2.299   7.275  0.3735  0.2387  0.1855
    1W        W31326   4.782  23.225   0.454  0.2717 -0.2416  0.1031
    1W        W31327  26.101  22.992   8.496  0.1741  0.1020  0.0002
    1W        W31328  20.825   8.933   8.854 -0.0750  0.2392  0.0747
    1W        W31329   0.448   7.601   2.023  0.0570 -0.1202  0.2494
    1W        W31330   5.122   4.517   2.350 -0.3182  0.0424  0.3109
    1W        W31331  21.036   3.246   1.812 -0.0165 -0.0475 -0.0251
    1W        W31332  13.197  17.602   8.143 -0.0772  0.4821  0.0047
    1W        W31333  26.936  22.849   2.209  0.1093  0.1543 -0.0447
    1W        W31334  24.900  10.597   1.616  0.3728  0.0130 -0.0004
    1W        W31335   5.836  17.947   8.985 -0.1489  0.1160 -0.0314
    1W        W31336   9.985  18.724   7.257 -0.0139  0.0697  0.1720
    1W        W31337  15.323  26.635   3.263 -0.1674  0.4481  0.0902
    1W        W31338  22.729  20.481   2.842  0.1078 -0.2681  0.0400
    1W        W31339  16.732   2.706   8.961 -0.1963 -0.2058 -0.1592
    1W        W31340  28.692  23.816   1.353 -0.1595  0.0928 -0.0412
    1W        W31341  19.826  23.479   7.831 -0.2305 -0.3717  0.0510
    1W        W31342  17.487   5.996   8.498  0.0558  0.2956 -0.1946
    1W        W31343  25.599  27.235   7.424  0.0046 -0.0688  0.0025
    1W        W31344   1.839   6.446   7.334  0.0982 -0.1409  0.0173
    1W        W31345  22.432  14.886   6.556 -0.1596  0.2592  0.1974
    1W        W31346   8.769  26.438   8.331  0.1701  0.0630  0.0017
    1W        W31347  23.862   9.548   0.351 -0.4043 -0.2044  0.1782
    1W        W31348  11.238   8.815   8.082  0.1139 -0.2704  0.2474
    1W        W31349   5.640  20.712   0.042 -0.3687 -0.0099  0.3608
    1W        W31350  12.372  20.355   0.445 -0.0601 -0.1538 -0.2093
    1W        W31351  20.485  18.330   7.031 -0.1060 -0.2327  0.1910
    1W        W31352  12.419   0.036   2.325  0.2125  0.3730 -0.3188
    1W        W31353   0.987  19.349   2.105  0.1892  0.1358 -0.0869
    1W        W31354   0.559   0.814   1.404 -0.3728 -0.0086 -0.0758
    1W        W31355   3.342  19.451   8.318 -0.0130  0.3327 -0.2044
    1W        W31356  19.399  24.664   2.546 -0.5036  0.0970 -0.1168
    1W        W31357  17.206  13.678   8.268 -0.1128 -0.0896 -0.3355
    1W        W31358   8.591  17.694   8.403 -0.1102 -0.1214 -0.2984
    1W        W31359  27.324  11.886   8.736 -0.2301  0.0387 -0.2012
    1W        W31360  14.254  19.485   7.670  0.0401  0.1785  0.1005
    1W        W31361  29.472   4.947   7.092  0.0224 -0.0652 -0.0852
    1W        W31362   8.415  29.024   9.215 -0.2123 -0.1955  0.1232
    1W        W31363   2.908  25.878   8.029 -0.3628  0.1808  0.3140
    1W        W31364   6.858   4.165   1.484  0.4889  0.1343  0.3004
    1W        W31365   8.919   1.832   3.382  0.1299  0.1052 -0.1570
    1W        W31366   9.082   4.659   0.596 -0.1868 -0.0717  0.2279
    1W        W31367  16.458  14.139   1.340  0.1515 -0.1525  0.1619
    1W        W31368  10.320   3.825   0.787 -0.0612 -0.1475  0.0400
    1W        W31369  24.941   1.063   2.323 -0.0456 -0.2108 -0.0920
    1W        W31370  26.847   8.784   5.700 -0.1715  0.0632 -0.2394
    1W        W31371  18.739   1.561   0.742 -0.1266  0.1922  0.2000
    1W        W31372  10.137  27.357   1.190 -0.1923  0.2667  0.2166
    1W        W31373  23.420  21.945   3.081 -0.1284  0.0607  0.2378
    1W        W31374   0.848   6.867   8.939  0.1132  0.2241 -0.2808
    1W        W31375  27.981  14.175   1.934  0.4074 -0.1570  0.0240
    1W        W31376   3.623  10.038   7.517  0.1089 -0.1064  0.0964
    1W        W31377  20.926   0.180   1.982 -0.0205 -0.0142 -0.2310
    1W        W31378  11.578  29.024   7.893  0.1367  0.0311  0.1264
    1W        W31379  26.081  22.453   2.657  0.0050 -0.0136 -0.0051
    1W        W31380  17.583  29.257   7.323  0.1037  0.2972  0.0482
    1W        W31381  26.368   0.666   2.275 -0.1239  0.0212  0.0294
    1W        W31382  26.050   4.121   2.876 -0.2219 -0.1990  0.1022
    1W        W31383  26.424  24.041   8.651 -0.0652  0.1824  0.3714
    1W        W31384   6.955  15.294   0.132  0.0489  0.3283  0.1890
    1W        W31385   9.035   6.026   0.474 -0.0499  0.1271  0.2948
    1W        W31386  12.485  17.877   1.236 -0.1816 -0.1044  0.0791
    1W        W31387  11.219  19.458   7.487 -0.1875 -0.0561  0.0847
    1W        W31388  20.414  14.851   0.557 -0.1018 -0.0707  0.0551
    1W        W31389  22.357  16.762   0.323  0.0132 -0.2345 -0.0935
    1W        W31390  25.132   1.299   1.913 -0.1587 -0.0360 -0.0162
    1W        W31391  15.039   1.749   8.447 -0.0807  0.2623 -0.2194
    1W        W31392  26.318  23.339   2.481 -0.2574 -0.0809  0.0271
    1W        W31393   5.040  13.035   0.622 -0.4314  0.0643  0.0775
    1W        W31394  23.834   1.121   2.188  0.2152  0.1096 -0.0429
    1W        W31395  29.812   8.323   8.596 -0.4369  0.0978 -0.0570
    1W        W31396   7.160  13.177   7.007  0.1382 -0.1832  0.0195
    1W        W31397   9.685  12.391   7.342  0.0751 -0.1928  0.0477
    1W        W31398   8.187  12.964   7.827 -0.0965 -0.0642 -0.0395
    1W        W31399  23.018   6.262   3.325  0.1521  0.2106  0.1654
    1W        W31400   8.457   3.792   2.678 -0.0990  0.3984 -0.2122
    1W        W31401  12.243  27.448   1.861 -0.1282 -0.2647 -0.0648
    1W        W31402  29.173  12.539   8.735 -0.1136  0.1733  0.0344
    1W        W31403   7.051  17.722   8.174 -0.0597  0.1465 -0.2687
    1W        W31404   5.767   0.269   2.177  0.0606  0.2604  0.0650
    1W        W31405   6.787  17.745   1.053  0.0189  0.1387 -0.2384
    1W        W31406  21.660   8.405   0.039 -0.0030 -0.1043 -0.2395
    1W        W31407   2.846  10.066   1.971  0.0162  0.1127 -0.2872
    1W        W31408   2.961   8.304   2.800 -0.1448 -0.0767 -0.3145
    1W        W31409   4.528  18.940   7.128  0.0612  0.3065  0.0168
    1W        W31410   0.028  19.162   6.724 -0.2853 -0.1176  0.0751
    1W        W31411  20.896  25.302   7.872  0.0315 -0.0374  0.0495
    1W        W31412  17.458  28.699   9.379 -0.0783 -0.2181  0.2856
    1W        W31413  14.809  20.217   0.481 -0.0160 -0.2055 -0.1953
    1W        W31414  26.384  29.101   0.161 -0.1667 -0.0681  0.0630
    1W        W31415  14.642   8.645   1.050 -0.3734  0.0589 -0.1680
    1W        W31416  16.258  22.343   6.800 -0.1597  0.2881 -0.0374
    1W        W31417  10.264  10.120   2.483  0.0143 -0.1721  0.2000
    1W        W31418  21.272  16.789   7.909 -0.2775 -0.1892  0.0129
    1W        W31419  12.518  25.518   6.880 -0.3784  0.0201  0.0921
    1W        W31420  26.044   0.238   9.033 -0.3475  0.0268 -0.0045
    1W        W31421   2.809  27.044   2.253  0.1357  0.1851 -0.4821
    1W        W31422   8.635  27.718   7.335 -0.2456 -0.3465 -0.3464
    1W        W31423  17.940   4.281   6.831  0.5179  0.0353 -0.0472
    1W        W31424   7.663  23.111   8.417  0.3777 -0.0835 -0.2336
    1W        W31425   7.549   1.203   3.268 -0.1449  0.1387  0.0220
    1W        W31426  28.904   5.553   1.599 -0.0938 -0.0247 -0.0185
    1W        W31427   5.084  16.510   0.653 -0.0548  0.1023 -0.0894
    1W        W31428   3.325   1.143   7.729 -0.1786  0.0952 -0.0524
    1W        W31429   0.172  18.623   6.949  0.0657  0.2451  0.1609
    1W        W31430  27.205   0.809   7.553  0.1050 -0.0248  0.1006
    1W        W31431   4.194  12.068   9.382  0.0884  0.0384 -0.0743
    1W        W31432   7.853   7.655   8.682 -0.2278 -0.1026 -0.1081
    1W        W31433  19.797  14.494   9.021  0.1460 -0.2245 -0.0183
    1W        W31434  26.166   0.600   6.454  0.3136  0.0672 -0.1331
    1W        W31435  26.497  24.848   7.769 -0.1570 -0.2146  0.0005
    1W        W31436  23.660  14.383   1.140  0.1936 -0.0041  0.1757
    1W        W31437  28.117   3.298   0.183 -0.2683  0.2459 -0.1379
    1W        W31438  26.554   8.023   2.402 -0.1354  0.0495  0.0920
    1W        W31439   2.062  24.675   6.465  0.2945  0.1528 -0.2245
    1W        W31440  10.122  19.098   2.189  0.1604 -0.0562  0.0806
    1W        W31441  28.213  21.683   6.583 -0.0246 -0.0116 -0.1833
    1W        W31442  21.919  11.150   8.775  0.0443 -0.0000  0.0369
    1W        W31443  18.522  27.992   7.526  0.0836 -0.2033  0.1408
    1W        W31444  13.457  23.864   9.364  0.1289 -0.1612  0.1941
    1W        W31445  11.541  10.309   1.021 -0.2322 -0.0003 -0.0136
    1W        W31446  18.366   3.725   6.764 -0.0637 -0.0155  0.1177
    1W        W31447  10.557   2.389   0.396  0.0414 -0.3417 -0.3906
    1W        W31448  18.529  29.733   0.720  0.1240  0.2057  0.0830
    1W        W31449  23.657  22.234   1.631 -0.4278 -0.3796 -0.1529
    1W        W31450  22.792   6.580   8.262  0.2410  0.1366  0.5650
    1W        W31451  19.055   6.638   7.147 -0.1460  0.0579 -0.2160
    1W        W31452  16.068  14.455   1.565 -0.0184  0.0860  0.3822
    1W        W31453  17.364  14.239   7.136  0.0881  0.1483  0.1723
    1W        W31454  23.652  25.569   1.835  0.1074  0.1812 -0.1236
    1W        W31455  16.948  29.303   3.725 -0.1237 -0.0159  0.3069
    1W        W31456   2.124  12.474   2.687  0.0701 -0.1693  0.1535
    1W        W31457  12.086  11.827   0.550 -0.2887  0.0633  0.0851
    1W        W31458   4.639  27.254   0.852 -0.2549 -0.0226 -0.0780
    1W        W31459  18.623   0.112   2.420  0.2235 -0.0318  0.0131
    1W        W31460   4.837  11.555   0.137  0.1396 -0.4369  0.4347
    1W        W31461  14.642   8.008   7.887  0.0401 -0.3121 -0.2035
    1W        W31462  29.309  15.592   0.021  0.0275  0.1402  0.0287
    1W        W31463  25.517  10.407   7.560  0.0479  0.2908 -0.4240
    1W        W31464   9.462  12.405   1.273 -0.1878 -0.2105 -0.0703
    1W        W31465  26.095   2.779   8.503 -0.0689 -0.2284  0.1037
    1W        W31466  10.235  21.014   1.967 -0.0558  0.0241 -0.1432
    1W        W31467   8.113  29.611   2.290  0.1168  0.1249 -0.3948
    1W        W31468  17.617   6.228   0.933 -0.1472  0.1057 -0.1087
    1W        W31469   1.378   9.449   3.217  0.1007  0.2382  0.3559
    1W        W31470   5.708  16.458   7.852  0.0352  0.2676 -0.0262
    1W        W31471   0.544   5.546   7.567 -0.0360  0.0378  0.0906
    1W        W31472  25.568   4.638   0.149  0.2513 -0.2016  0.0157
    1W        W31473  13.305  22.096   8.187 -0.0400  0.0858  0.0039
    1W        W31474  28.856   4.023   1.852  0.0084  0.1100 -0.3582
    1W        W31475  23.951   2.598   9.385  0.0862  0.2546 -0.3380
    1W        W31476  24.263  16.146   8.083  0.0214 -0.2126 -0.0897
    1W        W31477   6.470  15.219   0.805 -0.1413 -0.2417  0.2217
    1W        W31478  18.288  13.452   9.171  0.3311  0.2782 -0.0772
    1W        W31479   5.088   7.537   8.101  0.0699 -0.0500 -0.1266
    1W        W31480  28.102  23.409   9.126 -0.1249  0.0102  0.0430
    1W        W31481   3.869  12.769   8.592  0.0760 -0.1084  0.0856
    1W        W31482   9.904  14.190   8.931  0.2332 -0.3942 -0.2280
    1W        W31483   9.558  17.799   8.818  0.2238  0.1502  0.2769
    1W        W31484  24.771  16.579   7.436  0.0470  0.1301  0.2867
    1W        W31485   3.919  11.480   7.032 -0.2635  0.1382  0.0681
    1W        W31486  10.842   8.133   0.910 -0.0659 -0.1259 -0.3390
    1W        W31487   6.108  17.952   8.122  0.0214  0.0628  0.0296
    1W        W31488  20.779  29.144   8.965  0.1501 -0.1135 -0.0866
    1W        W31489   4.502  26.770   8.752  0.2471 -0.0069  0.1374
    1W        W31490   3.814  11.193   9.034  0.2129 -0.1067 -0.0293
    1W        W31491  11.049   7.257   8.907  0.3448  0.0340 -0.2560
    1W        W31492   5.440  19.684   8.620  0.4189 -0.1845  0.0726
    1W        W31493  22.042  21.539   6.658  0.2890  0.1410 -0.1176
    1W        W31494  22.521   6.925   0.548 -0.1750  0.1273  0.0001
    1W        W31495   3.910  17.325   1.756 -0.2571 -0.0419 -0.1161
    1W        W31496  20.274   6.231   0.821 -0.0084  0.3693  0.2346
    1W        W31497   8.044  10.806   8.643  0.0195 -0.0060  0.0971
    1W        W31498   8.802  29.318   8.668 -0.1401  0.0140  0.0609
    1W        W31499  27.729   5.177   9.303  0.2228  0.2554  0.2401
    1W        W31500  10.674  26.848   9.018 -0.0508 -0.2866 -0.2364
    1W        W31501   7.007   5.747   1.046 -0.1458 -0.0262  0.2939
    1W        W31502   0.391   2.819   0.309  0.0504 -0.2031  0.1153
    1W        W31503  20.668   1.824   6.994  0.0153  0.0617 -0.0088
    1W        W31504  24.344  11.929   1.636  0.2661 -0.1610 -0.0838
    1W        W31505  21.669  27.799   8.486  0.1443 -0.0702  0.1538
    1W        W31506  15.576  21.290   7.721 -0.2480 -0.3977 -0.4235
    1W        W31507   5.296  12.971   8.065  0.1544 -0.1767 -0.0970
    1W        W31508  14.645   8.645   8.769  0.0338 -0.1267 -0.0902
    1W        W31509   7.430  20.991   8.845 -0.2142 -0.0635 -0.0774
    1W        W31510   8.839  24.848   6.252  0.2052 -0.0684 -0.2380
    1W        W31511  10.620  26.629   2.734  0.1230  0.1608 -0.1275
    1W        W31512  16.905  22.427   8.441  0.1830 -0.1533  0.1485
    1W        W31513  11.617  20.526   6.498  0.0622  0.0429 -0.0847
    1W        W31514  17.079  19.970   6.935 -0.0802  0.2457 -0.1932
    1W        W31515  16.775   3.660   1.360 -0.2060 -0.1133  0.1819
    1W        W31516   9.400  26.052   7.423  0.0160  0.1931 -0.0882
    1W        W31517  19.943  25.615   0.909  0.1186 -0.2024 -0.2522
    1W        W31518  22.125   7.438   7.471 -0.0884 -0.2525 -0.0247
    1W        W31519   2.362  27.141   8.590 -0.1811 -0.0991  0.0473
    1W        W31520   8.114   5.972   9.079 -0.3504  0.1170 -0.0093
    1W        W31521   0.474  21.957   1.935  0.0990  0.1801 -0.0555
    1W        W31522  22.425  11.984   8.637  0.2110  0.1239  0.0144
    1W        W31523  22.327  16.165   8.121 -0.1468  0.0028 -0.0807
    1W        W31524  10.939  23.856   6.405  0.2700 -0.1115 -0.1346
    1W        W31525  20.538   6.225   7.977  0.0343 -0.0263  0.0747
    1W        W31526  21.245   9.735   9.035  0.0229 -0.1628  0.1060
    1W        W31527  16.250  25.056   2.882 -0.3144  0.3819 -0.1086
    1W        W31528  21.373   1.297   0.422 -0.0306 -0.1764 -0.0436
    1W        W31529  24.042  29.447   8.437  0.0777  0.0373  0.1461
    1W        W31530  20.484   2.404   2.677  0.0872 -0.1393 -0.0013
    1W        W31531  14.601   6.506   7.834  0.1217  0.1665 -0.1842
    1W        W31532   9.176  16.277   9.273 -0.1842  0.1549 -0.4443
    1W        W31533   0.731  10.876   8.731  0.1781 -0.0314  0.0864
    1W        W31534  21.872  13.767   0.756 -0.1918 -0.0510  0.1115
    1W        W31535   3.493  14.871   8.950 -0.0076 -0.0358 -0.2176
    1W        W31536   2.527  29.595   8.505 -0.2298 -0.3057 -0.0331
    1W        W31537  11.710   8.138   8.784 -0.0035 -0.0093 -0.0299
    1W        W31538   2.643  17.101   1.137 -0.1379 -0.0261  0.3126
    1W        W31539  28.943  28.549   7.053 -0.1441 -0.1588 -0.1293
    1W        W31540  27.101   9.854   6.580  0.0360  0.0896  0.0844
    1W        W31541  10.621  28.495   8.364 -0.1190 -0.1846 -0.1726
    1W        W31542   3.828   5.481   7.492  0.3547 -0.2622 -0.1055
    1W        W31543   4.596  19.347   6.619 -0.0951  0.0892 -0.0199
    1W        W31544  17.578  23.453   8.321 -0.0934  0.1756 -0.0260
    1W        W31545  21.250  19.618   0.788  0.3387  0.3188 -0.0060
    1W        W31546  16.162  26.209   1.916 -0.2207  0.1023  0.2716
    1W        W31547  18.958   3.711   7.383 -0.3353 -0.1800 -0.0506
    1W        W31548  19.280  11.316   0.336 -0.3081  0.0823  0.4166
    1W        W31549   0.126  11.656   0.589 -0.0479  0.1298 -0.3335
    1W        W31550  24.618  17.024   7.286 -0.5009 -0.3155  0.0016
    1W        W31551  14.371   2.148   0.212 -0.0722 -0.0423 -0.1152
    1W        W31552  19.177  21.181   0.687 -0.0748  0.2366  0.5790
    1W        W31553   2.190  28.822   0.954 -0.1440  0.2384  0.2344
    1W        W31554   7.213  14.254   7.207  0.2825 -0.3095  0.0596
    1W        W31555  10.032   9.031   2.243  0.0883  0.1121  0.3319
    1W        W31556   7.221   1.491   3.526 -0.1101  0.0892  0.0510
    1W        W31557  14.160   2.972   7.464  0.1864  0.1728  0.0109
    1W        W31558   3.704  23.998   6.239 -0.2604 -0.0301 -0.2375
    1W        W31559   7.623  22.012   0.571 -0.0914 -0.1211 -0.2652
    1W        W31560  15.233   9.657   0.335  0.2039  0.1849 -0.0062
    1W        W31561   7.061   5.767   1.957 -0.3571 -0.0652 -0.0643
    1W        W31562   1.566  27.132   6.886 -0.1438 -0.2308 -0.2440
    1W        W31563  13.308  22.433   1.020  0.1234 -0.0549  0.1856
    1W        W31564  10.591   8.189   0.425 -0.0557 -0.1946 -0.0488
    1W        W31565   0.832  14.623   7.886  0.0077  0.0680  0.0249
    1W        W31566  11.754   7.164   8.523  0.0019 -0.1414  0.0878
    1W        W31567  22.536  20.547   7.399  0.2902 -0.0805 -0.0644
    1W        W31568   6.597  16.911   2.191  0.1324 -0.0877  0.1475
    1W        W31569  21.514  20.290   7.691 -0.0606  0.3252 -0.0914
    1W        W31570  24.080  17.164   1.215  0.0744 -0.0115 -0.2610
    1W        W31571  14.295   4.567   2.805 -0.0399 -0.1403  0.2448
    1W        W31572   8.086  20.311   1.925 -0.0129  0.0487  0.1325
    1W        W31573  26.829  23.664   8.034  0.0987  0.0635 -0.0354
    1W        W31574  28.012  18.786   0.372 -0.0716 -0.0845 -0.0312
    1W        W31575  20.420   9.897   0.931  0.0699 -0.0686  0.0006
    1W        W31576  20.285  14.589   7.700  0.1090 -0.0491  0.3982
    1W        W31577  23.976  24.990   3.092  0.1226  0.2465  0.2052
    1W        W31578   8.237  28.397   8.655  0.0645  0.1256 -0.2673
    1W        W31579  22.986  28.755   7.284 -0.0943  0.1568  0.3009
    1W        W31580   4.650  10.326   6.488  0.0361  0.1242 -0.0813
    1W        W31581  23.047  16.747   6.728  0.1654 -0.2348 -0.0295
    1W        W31582  10.017  14.566   2.278  0.2089  0.0070 -0.0994
    1W        W31583  10.753   7.843   1.325  0.1612 -0.2147  0.0513
    1W        W31584  22.447  21.666   9.047 -0.0297  0.1475  0.3487
    1W        W31585  27.456  22.926   6.369  0.1528 -0.1506  0.0657
    1W        W31586  19.062   2.667   9.220  0.0207  0.1350  0.0439
    1W        W31587  14.280   4.088   9.352  0.1125  0.0226 -0.0733
    1W        W31588  19.893  25.559   8.167 -0.2154  0.1424  0.2265
    1W        W31589  12.076   2.400   8.915 -0.1298 -0.0592  0.2250
    1W        W31590  23.337   9.046   2.764 -0.0828  0.0076  0.1472
    1W        W31591  28.476   7.876   6.816 -0.1716  0.3239  0.1355
    1W        W31592  10.196  12.776   7.759  0.1183  0.0527  0.1321
    1W        W31593  25.649   9.224   2.447 -0.1764  0.2862  0.2257
    1W        W31594  17.460  28.073   9.141 -0.1122  0.2633 -0.0105
    1W        W31595  15.286  14.903   8.086 -0.3201 -0.1141 -0.0720
    1W        W31596  22.441  29.077   7.278  0.0433 -0.1340  0.1846
    1W        W31597   5.753  25.290   7.964  0.2150 -0.0479 -0.0894
    1W        W31598  17.642  14.391   8.919 -0.2532  0.0976  0.1060
    1W        W31599   6.516   8.915   1.742 -0.2017 -0.0077  0.2435
    1W        W31600  14.863  12.112   0.051 -0.0814 -0.1133 -0.1941
    1W        W31601  20.054  16.377   1.365 -0.0658 -0.1278  0.0779
    1W        W31602   1.406  13.205   9.341 -0.2498 -0.0739 -0.1494
    1W        W31603  27.717  25.199   1.147  0.1260 -0.0130  0.5096
    1W        W31604   7.035  23.603   9.436  0.0988  0.0441 -0.1007
    1W        W31605   2.038   5.771   6.889 -0.0894 -0.1250 -0.1068
    1W        W31606   9.308   2.659   8.906 -0.0060 -0.0038  0.1434
    1W        W31607  20.029  13.844   8.335 -0.0082 -0.0737  0.0313
    1W        W31608  25.832  10.560   8.813 -0.0854 -0.1903 -0.0986
    1W        W31609  27.834  26.283   8.393 -0.0487  0.2601 -0.4372
    1W        W31610  10.426   0.645   2.589  0.0432  0.1228 -0.0162
    1W        W31611   5.426  10.705   2.759 -0.0274  0.0999 -0.2497
    1W        W31612   7.628  24.752   7.979  0.0944  0.2568 -0.0767
    1W        W31613  17.844  25.263   2.803 -0.0673  0.1504  0.3418
    1W        W31614   3.354   1.453   2.665 -0.0716  0.2771  0.0673
    1W        W31615   0.792   1.985   8.655 -0.0087  0.2350  0.3673
    1W        W31616   1.832  26.546   7.815 -0.2572  0.0352  0.5374
    1W        W31617  21.812  18.018   2.079 -0.0321 -0.3234 -0.2275
    1W        W31618  17.854  18.510   2.638 -0.0765 -0.1241 -0.3624
    1W        W31619  20.474  18.649   9.428  0.0979  0.0812  0.0319
    1W        W31620  26.043   2.835   0.529 -0.0131  0.0437  0.1895
    1W        W31621  11.540  16.983   8.896 -0.3502  0.0003 -0.2340
    1W        W31622  25.353   6.924   1.356 -0.0037  0.0576 -0.0822
    1W        W31623   3.286  11.166   0.654  0.0336 -0.0035  0.2199
    1W        W31624  25.772  25.603   8.270  0.2382  0.4502  0.4064
    1W        W31625  25.364   5.483   1.762 -0.1348 -0.2336  0.0546
    1W        W31626  17.269  26.669   7.671 -0.0479  0.2441  0.0422
    1W        W31627   5.160  20.148   8.381  0.0477 -0.2838  0.0463
    1W        W31628   3.109  23.699   0.177 -0.1601 -0.3177  0.1052
    1W        W31629  19.306  17.394   0.610 -0.3421  0.1973  0.3800
    1W        W31630  13.606   0.601   9.147 -0.0677 -0.1155  0.1532
    1W        W31631  18.424   9.133   8.151  0.0542 -0.0632  0.2350
    1W        W31632   0.314  25.267   0.413 -0.0540 -0.0229  0.2276
    1W        W31633  21.195  22.598   8.869 -0.0103  0.3450 -0.0517
    1W        W31634   0.788  25.435   0.700  0.1181 -0.3800  0.0567
    1W        W31635  11.223   3.518   2.024 -0.4354  0.0170 -0.0846
    1W        W31636   5.981   6.275   1.254  0.2512  0.0339 -0.2424
    1W        W31637  15.973  28.227   2.397  0.0571  0.3813 -0.1671
    1W        W31638   4.368   1.060   7.851 -0.0803  0.0175 -0.2115
    1W        W31639  20.480  13.174   7.299  0.0621  0.1995  0.0096
    1W        W31640  26.318   4.613   0.380  0.0106  0.2103 -0.0792
    1W        W31641  26.967  20.126   0.721  0.1180 -0.0288  0.1692
    1W        W31642  26.922  24.882   2.922 -0.1885  0.1876 -0.0149
    1W        W31643  26.284  28.537   0.196  0.2821 -0.0647  0.0735
    1W        W31644   8.772  28.589   1.639  0.0724  0.2553  0.0048
    1W        W31645   5.754   5.367   2.409  0.0445 -0.0283 -0.1356
    1W        W31646   4.827  17.211   1.314 -0.1259 -0.1658 -0.0737
    1W        W31647  17.602   7.149   8.465  0.2217  0.1694  0.0861
    1W        W31648  10.124   0.589   9.038 -0.0466 -0.2919 -0.1507
    1W        W31649  10.022  26.297   0.369 -0.1176 -0.0730 -0.0170
    1W        W31650   6.683  17.445   0.697 -0.0229  0.2090  0.1317
    1W        W31651  13.033  22.207   6.501  0.1941 -0.1202 -0.1021
    1W        W31652   8.940  11.816   8.720 -0.2485  0.1630 -0.0991
    1W        W31653  28.000  16.749   9.107  0.1395  0.3703  0.0900
    1W        W31654  10.584   3.255   8.447  0.1151  0.1851 -0.0640
    1W        W31655  11.791  24.764   0.370  0.0608 -0.1242 -0.2683
    1W        W31656   3.443  10.755   0.887 -0.0769 -0.2571  0.1587
    1W        W31657  29.662   7.208   2.367 -0.0591  0.2803  0.2208
    1W        W31658  15.195   8.505   8.568  0.0660  0.1351  0.5296
    1W        W31659  22.790  29.271   8.969 -0.0195  0.0040  0.1932
    1W        W31660  19.857   2.425   1.287 -0.1196  0.1029  0.0956
    1W        W31661  28.040  24.724   8.735 -0.3015  0.2408 -0.0216
    1W        W31662  20.044   6.003   1.659 -0.2188 -0.0960  0.1560
    1W        W31663   3.948  19.683   1.594 -0.1952  0.2372  0.0776
    1W        W31664   3.466   5.160   7.303 -0.2251  0.2763  0.0247
    1W        W31665   5.992  24.096   1.716  0.0014  0.0690 -0.1101
    1W        W31666  12.484   7.645   8.907  0.1108 -0.2639  0.1374
    1W        W31667  19.731  22.931   9.226 -0.0583  0.0811 -0.2549
    1W        W31668  27.425   2.119   8.810  0.0444 -0.2313 -0.0959
    1W        W31669  13.397  20.329   8.441 -0.3046 -0.1088  0.0594
    1W        W31670   4.031   0.490   7.478  0.0656 -0.2224  0.1420
    1W        W31671   5.194  16.000   0.692 -0.0652 -0.3457 -0.0754
    1W        W31672  20.181   4.195   8.448  0.2277  0.1428 -0.1652
    1W        W31673  20.541   5.651   7.787 -0.1888  0.3154  0.0161
    1W        W31674  15.865  21.822   1.204  0.1251 -0.4169 -0.0262
    1W        W31675   4.873   3.383   2.539 -0.1764 -0.0944 -0.2145
    1W        W31676   5.080   3.795   2.746 -0.0359 -0.1920 -0.0766
    1W        W31677  27.415  22.256   7.348  0.0480  0.1448 -0.1694
    1W        W31678  18.283  27.984   2.438 -0.1115 -0.2257  0.1433
    1W        W31679   4.100  18.328   1.590  0.0055 -0.1033  0.1913
    1W        W31680   3.495   1.376   7.277  0.2306  0.2448 -0.0815
    1W        W31681   2.065   9.205   2.112 -0.1114 -0.0029 -0.0444
    1W        W31682   7.691  27.905   1.709 -0.0951  0.2644  0.1836
    1W        W31683  21.065  22.418   2.176  0.0300  0.0364 -0.0464
    1W        W31684   6.706  14.194   1.996 -0.0686  0.0750 -0.1981
    1W        W31685  26.764  18.524   1.913 -0.2459  0.0489  0.0234
    1W        W31686  20.071   3.691   2.667  0.0041  0.0711 -0.2204
    1W        W31687  24.193  26.611   2.412 -0.2807 -0.0504 -0.1592
    1W        W31688  22.405  15.612   7.430 -0.2029 -0.0354 -0.1232
    1W        W31689   4.208  26.014   0.404  0.3648 -0.0916 -0.1896
    1W        W31690  13.821   9.579   0.508  0.1560 -0.0237 -0.1046
    1W        W31691   8.173  17.230   6.619  0.1441  0.4234 -0.0033
    1W        W31692  18.456  26.958   2.042 -0.0069 -0.2863 -0.1966
    1W        W31693  24.880  12.122   6.800 -0.0048 -0.2252 -0.1678
    1W        W31694  13.229  21.835   0.791  0.1076 -0.2351 -0.0362
    1W        W31695  20.087   3.888   9.256  0.1257 -0.2897 -0.1112
    1W        W31696  23.391   7.976   1.993  0.1477  0.1459  0.0016
    1W        W31697   8.950   7.168   3.594 -0.0723  0.1007  0.1594
    1W        W31698  14.203  20.545   1.624 -0.0078  0.0300 -0.1067
    1W        W31699  13.290  24.284   0.151 -0.0464  0.3581 -0.4159
    1W        W31700  15.834  23.763   8.803 -0.1704  0.1545 -0.1509
    1W        W31701   1.312  18.995   0.674  0.1717  0.0866 -0.1600
    1W        W31702  12.398  16.774   2.060 -0.0743  0.1295 -0.0943
    1W        W31703   4.514   7.688   7.566  0.2867 -0.4307  0.0943
    1W        W31704   1.176   6.954   2.307 -0.2304 -0.1843 -0.2024
    1W        W31705   3.745  13.624   8.247 -0.2933 -0.0507 -0.1557
    1W        W31706   0.435  18.245   7.826  0.0347 -0.2383 -0.2724
    1W        W31707  22.464  26.127   2.411  0.2277 -0.1037  0.2070
    1W        W31708   7.955  26.235   7.942  0.3745 -0.1138 -0.4075
    1W        W31709  12.572  25.068   7.039  0.2131  0.0561  0.2267
    1W        W31710   6.796  29.784   2.090  0.1770 -0.2329  0.0824
    1W        W31711  10.898  18.219   8.555  0.0838 -0.0076  0.2135
    1W        W31712   4.103   2.362   2.109  0.2606  0.2606  0.2517
    1W        W31713  12.861  16.036   6.634 -0.0673  0.0536 -0.0461
    1W        W31714  18.938   3.703   0.185  0.1445  0.0829 -0.3196
    1W        W31715   1.952  15.204   0.158  0.2747  0.0968  0.0848
    1W        W31716   0.175   9.214   1.796 -0.1355  0.2132 -0.1753
    1W        W31717  14.592  24.096   7.824 -0.0410  0.2166 -0.2030
    1W        W31718  27.464  24.855   2.470 -0.1116 -0.1004  0.0433
    1W        W31719  23.184  19.378   7.877  0.0606  0.0570 -0.0667
    1W        W31720   2.464   4.833   1.263 -0.1007  0.1074  0.1886
    1W        W31721  13.457  17.546   7.422 -0.0181 -0.1134 -0.2923
    1W        W31722  19.529  15.080   1.510 -0.3578 -0.0435 -0.3477
    1W        W31723  13.788   8.441   2.268 -0.2750  0.0593 -0.0961
    1W        W31724  23.297   7.854   6.535 -0.0717 -0.0738  0.1253
    1W        W31725   4.322  19.669   7.592 -0.0470  0.1646 -0.0009
    1W        W31726  27.782  21.958   8.805 -0.1038  0.0107 -0.2092
    1W        W31727  26.974   3.569   7.037  0.0942 -0.0810  0.0648
    1W        W31728  10.382   5.009   6.661  0.2291  0.1484 -0.0211
    1W        W31729   3.205  10.443   1.773 -0.1511 -0.1546  0.2230
    1W        W31730   8.259  13.802   2.397 -0.1753  0.2234 -0.6252
    1W        W31731  26.663  22.025   6.172  0.1826 -0.0069 -0.1275
    1W        W31732  14.458  13.931   8.872  0.2741 -0.1616  0.0092
    1W        W31733  11.303  27.398   8.625  0.1426 -0.1229  0.1667
    1W        W31734   1.085  17.871   7.843 -0.1241 -0.1124  0.2434
    1W        W31735  25.237  26.278   7.094  0.0522  0.0228  0.1509
    1W        W31736  12.163   2.742   9.319  0.3552  0.1240  0.0712
    1W        W31737  11.701  24.351   7.179  0.4417  0.1343 -0.0052
    1W        W31738  22.669   9.202   2.909 -0.1027  0.1348 -0.0494
    1W        W31739   3.126   7.041   7.765  0.0546 -0.0131  0.0513
    1W        W31740  16.199   3.600   0.597 -0.4053  0.3262 -0.2699
    1W        W31741   9.210  21.758   0.117  0.0997  0.3542  0.1744
    1W        W31742   4.734  27.194   8.090 -0.0078 -0.4442  0.0035
    1W        W31743  21.199   0.004   0.017 -0.3800  0.2586  0.1242
    1W        W31744  24.997  12.061   9.448 -0.0581  0.0380  0.2055
    1W        W31745  12.333  22.783   6.509  0.0257  0.1133 -0.1826
    1W        W31746  10.788  18.822   0.484 -0.2186  0.0042 -0.0964
    1W        W31747   2.530  29.386   2.184 -0.1492  0.2653 -0.1172
    1W        W31748  28.800  22.324   7.392 -0.3225  0.2964 -0.3555
    1W        W31749  26.816   1.594   1.092 -0.0619  0.0496  0.0530
    1W        W31750   3.314  16.356   8.669  0.0620 -0.3569  0.2466
    1W        W31751  16.212  23.703   0.178 -0.0494  0.2735  0.1084
    1W        W31752  21.542   4.029   6.873  0.1190 -0.1826  0.1069
    1W        W31753  27.968  23.455   2.785 -0.1047 -0.2927 -0.0795
    1W        W31754  13.678   1.109   7.399 -0.3123 -0.2147 -0.0240
    1W        W31755  29.750   4.178   7.509 -0.0289  0.1675 -0.0811
    1W        W31756  10.070  22.530   7.336  0.4861  0.4553 -0.2500
    1W        W31757   5.367   6.513   9.007  0.0206 -0.0791  0.3023
    1W        W31758   6.402   3.515   2.433 -0.0927 -0.2111 -0.0806
    1W        W31759  19.702   3.253   8.136  0.2233 -0.0382  0.1474
    1W        W31760  17.866  26.352   8.234  0.0805 -0.1086  0.0645
    1W        W31761  12.149   5.206   4.069 -0.1613  0.1800  0.1049
    1W        W31762  28.597  25.341   0.043 -0.0658 -0.2505  0.3055
    1W        W31763  23.134   9.188   1.319 -0.1569  0.1258  0.0356
    1W        W31764   1.899   6.097   8.337 -0.3008  0.2533 -0.3069
    1W        W31765   5.778   2.488   1.683  0.0388 -0.0350  0.0255
    1W        W31766   9.505   2.234   9.039  0.1266 -0.0354  0.0563
    1W        W31767  16.214   7.452   1.123 -0.0327  0.2289 -0.1264
    1W        W31768  22.839  27.029   0.857  0.2955 -0.0992  0.0827
    1W        W31769  13.748  20.710   1.434  0.1335 -0.3171 -0.0229
    1W        W31770   2.000  11.123   0.709  0.2785  0.4894 -0.0751
    1W        W31771   2.695  20.243   9.115  0.1941  0.1692  0.0608
    1W        W31772  13.916  25.942   9.231 -0.0682  0.3250  0.4330
    1W        W31773  28.165   6.669   1.873 -0.0498  0.2402 -0.0820
    1W        W31774  15.214  17.987   8.063 -0.0065  0.0871 -0.2088
    1W        W31775  24.651   0.607   8.973 -0.0203  0.1623 -0.2721
    1W        W31776   9.606  24.211   0.252 -0.1924  0.2735 -0.0230
    1W        W31777  11.952  23.538   6.178  0.2767  0.0703 -0.4886
    1W        W31778   9.737   7.134   8.971 -0.0321  0.3740 -0.1528
    1W        W31779   4.078   2.246   7.617 -0.1197  0.1252 -0.0240
    1W        W31780  13.743  23.466   5.963  0.0450  0.0325  0.2691
    1W        W31781   3.084  22.644   7.238  0.1874 -0.1006 -0.0540
    1W        W31782  20.320   1.338   8.423 -0.0461 -0.1937 -0.1392
    1W        W31783  14.758  15.433   8.072  0.1088  0.2060  0.1788
    1W        W31784  27.114  14.593   6.123 -0.2547 -0.0468 -0.4799
    1W        W31785  24.939   5.982   2.106 -0.0037  0.3567  0.3524
    1W        W31786  10.535  17.064   2.442 -0.3584  0.2293  0.1967
    1W        W31787   1.790  29.545   7.868 -0.2817 -0.1015 -0.0990
    1W        W31788  17.666   5.037   0.965 -0.0458 -0.1373  0.2971
    1W        W31789  17.738   9.185   8.305  0.2207 -0.0738 -0.1805
    1W        W31790  25.075  26.321   1.766 -0.0754 -0.0625 -0.0863
    1W        W31791  22.356   2.185   2.061 -0.3488 -0.1194 -0.2726
    1W        W31792   3.589   0.859   7.359  0.1572  0.1416  0.0732
    1W        W31793  13.084  18.614   6.741 -0.2153 -0.0807  0.1736
    1W        W31794   8.470  28.949   2.379  0.1176  0.2537 -0.0111
    1W        W31795  17.002   9.086   6.229 -0.0022 -0.1427  0.2889
    1W        W31796  17.503  10.900   9.244 -0.3303 -0.0183 -0.1762
    1W        W31797  21.968  24.173   9.414 -0.0241 -0.2237  0.2406
    1W        W31798   8.885  15.577   7.873 -0.1435 -0.0779  0.2299
    1W        W31799  12.030  15.818   0.039 -0.3042 -0.2412 -0.1683
    1W        W31800  25.490  27.150   6.896 -0.2411  0.2604 -0.1521
    1W        W31801  13.796  18.547   8.923 -0.0432  0.2308  0.1144
    1W        W31802  18.809  10.678   1.846  0.1462 -0.0373 -0.1201
    1W        W31803  22.453   9.540   6.728  0.0640 -0.1510  0.1880
    1W        W31804  13.695  21.269   8.720 -0.0141  0.1234  0.1188
    1W        W31805  25.996  13.430   0.119 -0.1421 -0.2038 -0.1783
    1W        W31806  15.455   3.847   2.455  0.1741  0.1056 -0.1239
    1W        W31807  11.343  18.143   9.091 -0.1128 -0.2845 -0.2417
    1W        W31808  16.164  21.855   0.707  0.3355  0.3077 -0.1582
    1W        W31809  27.565   1.388   0.575 -0.1163 -0.3161  0.0489
    1W        W31810  13.341  15.769   0.867 -0.0672  0.1066  0.0082
    1W        W31811  11.379   0.359   7.744  0.2125 -0.1160  0.2160
    1W        W31812  24.068  11.811   9.205  0.0050 -0.1704 -0.0236
    1W        W31813  23.718  23.675   9.108  0.1886 -0.2138 -0.2326
    1W        W31814   6.249   6.387   3.222  0.1943  0.1073 -0.0184
    1W        W31815  11.489  14.424   0.486  0.0421  0.2076 -0.3658
    1W        W31816  10.865  23.081   8.801 -0.1781 -0.0450  0.1532
    1W        W31817  14.265  19.671   8.146 -0.1711 -0.2637 -0.1369
    1W        W31818  19.037   7.683   7.149  0.2129  0.1320 -0.0034
    1W        W31819  18.234  27.110   8.582  0.1492 -0.2050 -0.1306
    1W        W31820  20.912  14.250   1.642  0.0391 -0.0790 -0.5531
    1W        W31821   5.741   8.156   7.420 -0.0154 -0.1143 -0.1077
    1W        W31822  27.435   9.202   9.019 -0.0939  0.0614 -0.0816
    1W        W31823   4.196  18.593   6.949  0.1530  0.0707  0.1759
    1W        W31824   7.525  28.265   6.737  0.3154 -0.1733  0.1452
    1W        W31825  26.984   6.765   2.750 -0.0586 -0.0324  0.4238
    1W        W31826   1.565  21.017   0.002  0.2697  0.0133  0.1196
    1W        W31827   0.127  16.790   0.103  0.1237  0.0629  0.1074
    1W        W31828   0.584   3.104   7.201  0.2763  0.2705 -0.1389
    1W        W31829   0.045  16.765   8.933  0.3370 -0.1777 -0.0030
    1W        W31830  10.286  12.852   1.577  0.2597  0.0071  0.2195
    1W        W31831  19.007  16.302   9.092  0.0849 -0.4279  0.3829
    1W        W31832  14.914  18.086   0.386 -0.0015  0.1627 -0.0237
    1W        W31833   2.378   2.453   2.451 -0.1992 -0.1182  0.0696
    1W        W31834  10.257  16.819   1.598 -0.0822  0.2820  0.2465
    1W        W31835  18.582  24.167   0.821 -0.0093 -0.3021 -0.0308
    1W        W31836   1.158  19.831   9.406 -0.4203 -0.3249 -0.0336
    1W        W31837  20.197  28.894   2.470  0.1085 -0.2735 -0.5344
    1W        W31838  17.843   9.595   7.046 -0.1729 -0.1218 -0.2263
    1W        W31839   2.074   0.033   7.552 -0.0491  0.3149  0.0806
    1W        W31840  26.552  28.319   1.224  0.2799  0.1690 -0.0539
    1W        W31841   5.727   0.662   3.110  0.1180 -0.1792  0.0077
    1W        W31842  23.895   4.389   2.825  0.0920  0.1286  0.2069
    1W        W31843   6.779  12.188   8.270  0.1001 -0.1081  0.0140
    1W        W31844  18.846  15.823   1.143  0.1723  0.0052 -0.5042
    1W        W31845  28.574   9.650   8.047  0.2897 -0.0854 -0.2253
    1W        W31846   7.578   7.317   1.902  0.0772 -0.1416  0.1443
    1W        W31847   6.592  20.831   0.910  0.0688  0.0477 -0.0693
    1W        W31848  11.643  21.491   7.050  0.2699 -0.0417 -0.0997
    1W        W31849  16.680  13.589   8.509  0.2868 -0.3133 -0.0134
    1W        W31850  26.415   2.363   2.424  0.1959 -0.1482  0.1658
    1W        W31851   7.156  17.972   1.307  0.0356  0.4271  0.1471
    1W        W31852  15.699  23.681   1.837  0.1534  0.2230 -0.3574
    1W        W31853   0.157   1.343   9.208  0.1336  0.0403  0.1835
    1W        W31854  20.721   9.151   0.292 -0.0331  0.2967  0.3596
    1W        W31855  23.842  18.502   9.337 -0.0241  0.2045 -0.0990
    1W        W31856  13.806   3.408   3.007  0.2348  0.1436 -0.3371
    1W        W31857  21.494   5.581   9.070  0.3985  0.0203  0.4621
    1W        W31858   4.899  22.058   6.683  0.1458 -0.0214  0.1346
    1W        W31859   6.365   7.875   1.509 -0.1153 -0.1427  0.0114
    1W        W31860  26.501   2.015   1.019 -0.0270  0.1689 -0.4585
    1W        W31861  15.635  20.648   1.025  0.2113 -0.1456 -0.2075
    1W        W31862  11.253  28.115   2.275 -0.1329  0.0534  0.0853
    1W        W31863  13.141  25.057   7.798  0.1468  0.0431 -0.1809
    1W        W31864   5.318  28.025   9.126  0.1048 -0.1086 -0.0379
    1W        W31865  22.095   6.710   7.028  0.0239 -0.1654 -0.1637
    1W        W31866   3.960   8.277   1.916  0.0033  0.0748 -0.1115
    1W        W31867  10.169  14.600   9.061  0.0957 -0.1115 -0.0319
    1W        W31868   6.956  25.897   1.629  0.0558  0.1385 -0.0930
    1W        W31869  18.298  10.237   1.659 -0.0736  0.1658  0.0348
    1W        W31870  24.606  13.629   7.469 -0.0500  0.2395 -0.1110
    1W        W31871  17.934  26.225   0.392  0.0563  0.2577  0.0082
    1W        W31872  23.146  26.545   0.726  0.1426 -0.0180 -0.1117
    1W        W31873  13.105  22.699   2.311 -0.1584  0.0660 -0.1093
    1W        W31874   1.851   5.933   2.678 -0.1062  0.1608 -0.0019
    1W        W31875  27.612  28.287   6.708 -0.0008 -0.0333  0.1244
    1W        W31876  10.573   7.752   0.694  0.1212 -0.1592  0.1227
    1W        W31877  14.671  25.988   7.854 -0.0196 -0.0315  0.1100
    1W        W31878  18.233  22.025   7.668 -0.1437  0.0141 -0.1549
    1W        W31879  21.643   1.767   1.573 -0.2188 -0.0168 -0.3354
    1W        W31880   2.441  13.114   7.302 -0.3754 -0.2978 -0.0491
    1W        W31881  17.253   8.357   8.629 -0.2496 -0.2008 -0.0244
    1W        W31882   1.850   9.555   0.888  0.0125 -0.2281  0.1100
    1W        W31883  11.654  28.801   8.948 -0.0459  0.2299  0.0432
    1W        W31884   5.827  13.111   2.425  0.0656  0.2736 -0.0322
    1W        W31885  15.222   7.909   6.401 -0.1316  0.2185  0.0530
    1W        W31886   0.487  21.464   2.048 -0.2613  0.0269  0.0219
    1W        W31887   1.359  29.401   0.038  0.1663 -0.0401  0.1034
    1W        W31888   8.154  29.487   9.264  0.4231 -0.3149  0.0700
    1W        W31889   7.691  12.796   3.307 -0.1077  0.2195 -0.2139
    1W        W31890  26.002  14.983   6.807  0.2268  0.0386  0.1499
    1W        W31891   7.240  16.472   0.033  0.0348  0.2821 -0.2414
    1W        W31892  10.134  10.697   7.713  0.0092  0.1393  0.1913
    1W        W31893  18.059   5.426   1.148  0.0668  0.1038  0.3483
    1W        W31894   1.482  18.750   7.485  0.1768 -0.0262 -0.0934
    1W        W31895   9.369  14.078   0.146  0.0182  0.2221 -0.0933
    1W        W31896  13.451  10.580   8.389  0.2910  0.0241 -0.3420
    1W        W31897  25.766  20.597   1.305 -0.1534 -0.0830  0.1452
    1W        W31898  10.916  24.008   9.134 -0.2215  0.3118  0.0653
    1W        W31899  25.951  21.920   1.214  0.0420  0.2353 -0.0453
    1W        W31900  14.590  23.947   2.481  0.1738  0.1614 -0.0302
    1W        W31901  10.229   9.041   8.399  0.0697 -0.2804  0.1476
    1W        W31902  28.650  11.342   8.712  0.1144 -0.1340  0.1907
    1W        W31903   3.554   9.320   1.487 -0.2975 -0.0844  0.1643
    1W        W31904  23.922   7.939   1.978 -0.0738  0.4304 -0.0456
    1W        W31905  20.389  26.131   2.270 -0.1405  0.1651 -0.0465
    1W        W31906  28.130  26.875   9.256  0.4677  0.0522 -0.1479
    1W        W31907  16.616   9.479   8.605 -0.1799  0.0822 -0.0084
    1W        W31908   9.716  29.644   3.608  0.1450 -0.0528  0.2485
    1W        W31909  29.391   4.196   1.089 -0.0196 -0.1959 -0.0046
    1W        W31910   9.055  26.527   8.759 -0.1554 -0.3083 -0.1134
    1W        W31911  25.263   0.545   2.386  0.0228  0.3950 -0.0727
    1W        W31912  28.644  15.635   8.796  0.2961 -0.0853 -0.4491
    1W        W31913   0.222   0.788   3.214  0.0917 -0.1403  0.0306
    1W        W31914  25.403  29.137   8.048  0.0996 -0.2715 -0.3041
    1W        W31915  24.443  25.822   7.873  0.0976  0.0269 -0.0751
    1W        W31916  26.999  14.819   1.997 -0.2946  0.2351  0.2022
    1W        W31917  17.346   6.474   2.723 -0.1619  0.3178  0.0835
    1W        W31918   0.913   9.647   6.559  0.2052  0.1164  0.0714
    1W        W31919  29.013  24.875   7.108 -0.3613  0.1789 -0.0876
    1W        W31920   0.633  21.962   2.410 -0.2126  0.1465  0.2030
    1W        W31921   4.310   5.323   6.813  0.1063  0.0010  0.2138
    1W        W31922   8.362  28.967   8.729 -0.2438 -0.2117  0.0126
    1W        W31923  22.282  24.312   2.210 -0.0976 -0.1900  0.3921
    1W        W31924   0.069  20.537   1.255 -0.1845 -0.0660  0.2319
    1W        W31925  25.508   8.338   8.695  0.2530  0.0902 -0.0757
    1W        W31926  19.818   4.271   7.560 -0.2000 -0.0912  0.3078
    1W        W31927   8.517  18.169   8.309 -0.1963  0.1445  0.3186
    1W        W31928  22.685  14.558   0.457 -0.2020  0.3064 -0.1634
    1W        W31929  14.314  17.832   6.778  0.3688  0.2102  0.0926
    1W        W31930  21.751  11.061   7.395  0.3043  0.2145 -0.3711
    1W        W31931  20.226  29.800   8.509 -0.3113 -0.0542 -0.1148
    1W        W31932  26.641  17.722   0.490 -0.0347 -0.2098  0.1952
    1W        W31933   2.307  24.736   7.785 -0.0858  0.3657 -0.1226
    1W        W31934  21.044   0.954   7.687  0.3499 -0.2958  0.1156
    1W        W31935   3.210   4.104   6.445  0.0438 -0.0146 -0.2107
    1W        W31936  14.247  21.762   0.457 -0.1879  0.2781  0.3126
    1W        W31937  11.106   0.535   9.059  0.0185 -0.1176 -0.0496
    1W        W31938   1.729  24.647   9.372 -0.0657  0.1418  0.1061
    1W        W31939   5.783  26.243   1.492 -0.1629 -0.0272 -0.0280
    1W        W31940   5.229  26.099   8.104  0.1108  0.1494  0.1943
    1W        W31941  17.401  18.196   0.452 -0.1072  0.1055 -0.0464
    1W        W31942  24.595  18.712   8.527  0.3605  0.2230  0.0316
    1W        W31943   7.775   3.493   3.296  0.0566 -0.1411 -0.1393
    1W        W31944   9.293   5.526   9.317 -0.0404 -0.0780  0.2200
    1W        W31945   9.644   6.197   3.629  0.1171 -0.1061 -0.1689
    1W        W31946   6.948  19.994   8.734 -0.4382  0.1507 -0.0874
    1W        W31947  19.082  11.117   1.716  0.0627 -0.1728  0.1217
    1W        W31948  21.657  16.183   0.667 -0.2023  0.1785  0.0374
    1W        W31949  20.732   9.819   9.194 -0.0075 -0.0144  0.0043
    1W        W31950  20.446  29.822   2.316 -0.1102  0.3293  0.1161
    1W        W31951  18.379   3.300   8.440  0.4038  0.0574 -0.0945
    1W        W31952   1.853  22.167   5.228 -0.2187 -0.1088  0.1355
    1W        W31953  18.864  16.355   0.874 -0.4055  0.0284  0.0560
    1W        W31954  14.381  21.636   2.154 -0.1324 -0.0973 -0.1394
    1W        W31955  26.490   3.295   2.466  0.0093 -0.1288 -0.2551
    1W        W31956   3.737   6.641   1.861  0.0640 -0.2454 -0.2192
    1W        W31957   6.062  10.239   8.898 -0.0763 -0.2821  0.0786
    1W        W31958  26.675  29.112   6.663  0.1161  0.0032  0.2092
    1W        W31959  26.174  16.079   9.369 -0.0561 -0.0520  0.3758
    1W        W31960  11.082   4.525   3.070 -0.0810  0.0105 -0.0474
    1W        W31961  15.934   0.607   0.337 -0.0273  0.2033 -0.0477
    1W        W31962   4.491   9.553   0.346 -0.0949 -0.0777  0.4161
    1W        W31963  18.432  29.003   9.026  0.0754 -0.1632 -0.1780
    1W        W31964   9.539  14.216   2.022 -0.3675 -0.0750 -0.0999
    1W        W31965  29.308  26.112   8.381 -0.4014  0.1345  0.2084
    1W        W31966   1.580   6.149   2.176  0.2257 -0.1269 -0.1990
    1W        W31967  27.434  17.849   2.748  0.0924 -0.0146 -0.1399
    1W        W31968  16.991  11.752   1.399  0.0881 -0.0886  0.2222
    1W        W31969  29.352  13.530   1.724 -0.1357 -0.1504  0.1331
    1W        W31970  22.144   0.206   0.817 -0.1577 -0.2171  0.1896
    1W        W31971  11.417  28.022   7.901 -0.2690  0.2992  0.2019
    1W        W31972  26.666  21.133   1.438 -0.1177 -0.2042 -0.2833
    1W        W31973  12.019  23.126   0.362 -0.1289 -0.2607 -0.1832
    1W        W31974  19.802  20.053   8.281  0.2075 -0.1729 -0.0214
    1W        W31975   3.820  22.923   8.837  0.0318  0.1394  0.1447
    1W        W31976  20.338  20.264   1.711  0.1400  0.0979 -0.0075
    1W        W31977  26.323  26.165   1.315 -0.0600 -0.1353 -0.1191
    1W        W31978  13.920   4.043   8.977  0.2629  0.2897 -0.1313
    1W        W31979  20.907  28.579   0.179 -0.0862 -0.0732  0.1296
    1W        W31980   4.051  20.512   9.239  0.5615 -0.0736 -0.1648
    1W        W31981  23.880  29.325   6.481 -0.0706 -0.0487  0.0749
    1W        W31982  11.979  17.692   7.887  0.0710  0.0716 -0.0646
    1W        W31983  10.287  29.054   2.559 -0.2653  0.0147 -0.0078
    1W        W31984   8.195  18.220   7.016  0.0322  0.1687 -0.1758
    1W        W31985  28.717   4.876   1.376  0.2687 -0.2584 -0.2364
    1W        W31986  29.309  25.318   7.186  0.1652  0.2006  0.0952
    1W        W31987   1.371   8.358   7.168  0.0898  0.1269 -0.1105
    1W        W31988   6.175   4.681   9.281 -0.1172  0.2179  0.2847
    1W        W31989   7.147  11.043   2.401 -0.0766 -0.1446  0.0825
    1W        W31990   4.459   0.241   7.647  0.1987  0.1218  0.2928
    1W        W31991   7.153   4.382   1.079 -0.1346 -0.1063 -0.3001
    1W        W31992  14.687  22.296   8.550  0.1826  0.1448  0.0345
    1W        W31993   6.919  21.688   8.943  0.0110 -0.2991 -0.2945
    1W        W31994  23.155  15.323   8.863 -0.0912 -0.3806 -0.0566
    1W        W31995   5.004  17.559   8.473  0.0188  0.0012  0.0573
    1W        W31996   4.290   4.954   2.163  0.1374  0.0861  0.0384
    1W        W31997   5.387   6.761   2.906  0.0073  0.2526 -0.0608
    1W        W31998  29.143  13.545   2.198  0.0293 -0.2237 -0.1322
    1W        W31999  24.384  21.458   2.548  0.2146  0.0167  0.1167
    1W        W32000  24.461   5.612   1.444  0.1050  0.0303  0.0849
    1W        W32001  19.177   7.408   8.142 -0.1172 -0.1323  0.1253
    1W        W32002  25.233  25.028   1.230 -0.1973  0.2121 -0.1506
    1W        W32003  18.203  20.713   2.942  0.1291  0.2096 -0.2084
    1W        W32004   4.014   4.460   9.078  0.0176  0.1574 -0.1584
    1W        W32005  13.111  22.816   8.752  0.0452 -0.2041 -0.3015
    1W        W32006   8.504  24.842   5.546  0.2472 -0.0769  0.1674
    1W        W32007  22.658  15.397   1.080 -0.0868 -0.3290 -0.2991
    1W        W32008  25.140  17.540   2.894  0.2043 -0.0820 -0.1108
    1W        W32009  27.312  15.531   8.878 -0.1271 -0.1934 -0.2588
    1W        W32010  22.508   9.191   2.424 -0.0528  0.0619  0.3404
    1W        W32011  21.729  19.882   0.692 -0.0565  0.0010  0.0777
    1W        W32012   5.772  13.552   0.444 -0.2592 -0.2243  0.3797
    1W        W32013   1.197  26.776   0.744 -0.3861  0.5270  0.2116
    1W        W32014   7.416  15.526   7.882 -0.0020  0.0568  0.1465
    1W        W32015   6.260   3.897   8.885  0.0028  0.2871  0.1756
    1W        W32016  15.495  11.883   8.078  0.1194  0.1775  0.0636
    1W        W32017  15.123   9.417   7.748  0.0929 -0.2033  0.1346
    1W        W32018  20.210  15.189   1.067  0.1030  0.0056 -0.0704
    1W        W32019  15.384   3.738   1.109  0.0273 -0.1200  0.3844
    1W        W32020  26.182   5.051   2.331  0.0149 -0.2221 -0.0452
    1W        W32021  23.594  11.244   2.678 -0.1321 -0.0151 -0.0814
    1W        W32022  15.327   0.663   7.842 -0.2672 -0.0662 -0.1456
    1W        W32023  15.926  26.828   8.699  0.0624 -0.0091  0.0895
    1W        W32024   2.775  10.090   8.853 -0.2704  0.0606  0.1811
    1W        W32025  29.596  17.775   0.846  0.0530 -0.0185  0.2479
    1W        W32026  11.671  14.948   0.806 -0.0802  0.1245  0.0290
    1W        W32027  23.330   5.064   0.030 -0.0851  0.2811  0.0036
    1W        W32028   7.060  23.603   7.916  0.0466 -0.0053  0.3486
    1W        W32029   5.296  19.403   2.047  0.0600  0.1296 -0.2978
    1W        W32030  10.971  14.748   8.676  0.1887 -0.1544  0.0446
    1W        W32031   0.705   9.275   0.372  0.2419 -0.2769 -0.0747
    1W        W32032  23.273  10.954   7.346 -0.0688  0.0287 -0.1970
    1W        W32033   2.234  24.300   6.858 -0.0940  0.1615  0.0334
    1W        W32034   5.626   7.066   1.605 -0.1365 -0.0178 -0.1252
    1W        W32035   2.587  21.450   7.016 -0.2085  0.0937 -0.0037
    1W        W32036  28.898   3.338   2.157 -0.2760  0.3347 -0.1883
    1W        W32037  13.963   7.684   8.825  0.1209 -0.0523  0.1709
    1W        W32038   4.635   5.501   7.160 -0.2465  0.0511 -0.0156
    1W        W32039   1.845  16.566   2.310 -0.0695 -0.0180 -0.0596
    1W        W32040  10.590  19.657   1.341  0.0526 -0.4200 -0.1591
    1W        W32041   2.060  24.418   0.826 -0.0723  0.3689  0.3996
    1W        W32042  24.332   2.580   2.131 -0.0517 -0.4018 -0.2197
    1W        W32043   9.119  28.229   1.020  0.2038 -0.0676  0.1343
    1W        W32044   1.703  23.285   0.562  0.1614 -0.0716 -0.0019
    1W        W32045  21.499  13.802   8.523  0.1235  0.2768  0.1766
    1W        W32046   0.743  16.760   6.850  0.1110  0.1476 -0.3231
    1W        W32047  27.717  17.782   0.172 -0.2621 -0.0629  0.0696
    1W        W32048  16.123  25.779   2.238 -0.1137 -0.1617  0.3810
    1W        W32049  18.579  28.905   0.109 -0.1614 -0.1432 -0.1149
    1W        W32050  19.918   2.078   7.420 -0.0736  0.1085 -0.0628
    1W        W32051  24.912   3.134   0.915 -0.3594  0.1141  0.1961
    1W        W32052  22.931  15.106   8.365  0.1186 -0.2948 -0.1043
    1W        W32053   7.455  23.400   8.838  0.2097  0.2084  0.0359
    1W        W32054  10.855  12.150   6.491  0.0255 -0.2784 -0.3352
    1W        W32055  13.084  28.392   1.111 -0.0471  0.0554 -0.4630
    1W        W32056  20.798   6.200   8.720  0.0594  0.1024 -0.5137
    1W        W32057  12.250   8.690   8.887 -0.2816  0.1182 -0.2715
    1W        W32058   7.591  20.572   1.217 -0.3023  0.0438  0.0311
    1W        W32059   1.271  15.848   0.461 -0.3038 -0.1826  0.2499
    1W        W32060  29.268   6.630   6.810  0.0608  0.1943  0.0563
    1W        W32061   7.011  21.128   5.355  0.1454 -0.0511 -0.1855
    1W        W32062   4.368  25.340   7.706  0.1773 -0.1098 -0.0279
    1W        W32063  15.495  11.456   9.419  0.0824 -0.1273  0.2271
    1W        W32064  20.666   4.018   7.772 -0.3637  0.0252 -0.3276
    1W        W32065  28.974  11.196   9.417 -0.1173 -0.0380  0.2322
    1W        W32066   2.487   3.811   1.987  0.0397 -0.0547  0.0239
    1W        W32067   4.799   5.030   7.401  0.0046 -0.0763  0.1317
    1W        W32068   1.170  15.803   7.250  0.1622  0.1636 -0.1416
    1W        W32069  23.049  29.492   2.085 -0.4258 -0.0911  0.0001
    1W        W32070   9.517  23.075   9.313  0.2175 -0.2337  0.1001
    1W        W32071   3.186  28.758   1.834 -0.3314 -0.0583  0.0734
    1W        W32072   4.164   9.871   0.141  0.1663  0.4245 -0.2262
    1W        W32073   0.475   7.957   6.277 -0.3877 -0.1475  0.1066
    1W        W32074  27.292  10.663   1.009  0.0479 -0.0168 -0.0023
    1W        W32075  25.032  22.980   9.210 -0.0133 -0.1547 -0.0728
    1W        W32076   1.560  11.433   0.704  0.0787 -0.0741 -0.0948
    1W        W32077   4.227   8.822   7.276  0.0521  0.0915 -0.2461
    1W        W32078  24.063  26.034   6.431  0.3474  0.0860 -0.0323
    1W        W32079  22.484   8.849   8.554  0.1018  0.1261  0.3182
    1W        W32080   1.694  24.015   1.663  0.2445 -0.0020  0.2147
    1W        W32081   3.553  24.238   1.446 -0.1432 -0.0455  0.2104
    1W        W32082  28.175   4.200   8.358 -0.0789  0.1569  0.1802
    1W        W32083  13.263   8.101   7.227 -0.1353  0.1396  0.2608
    1W        W32084   2.594  22.062   8.657  0.1977  0.1185 -0.1063
    1W        W32085  12.855  17.032   7.550  0.0915 -0.0320 -0.2689
    1W        W32086  15.330  22.609   1.061 -0.0100 -0.1911 -0.5656
    1W        W32087  29.707  14.828   9.171  0.0033 -0.0614  0.0986
    1W        W32088   7.539   9.853   1.451 -0.0837  0.2890 -0.0103
    1W        W32089   7.412  29.073   2.548 -0.1555 -0.0643  0.3856
    1W        W32090  14.672   0.296   9.380 -0.0408  0.0176  0.1328
    1W        W32091   4.282   9.030   9.099 -0.1938 -0.1392  0.2378
    1W        W32092  16.070   2.750   1.194  0.1828  0.1136  0.0123
    1W        W32093  22.363  13.962   2.348 -0.2073 -0.1979 -0.2146
    1W        W32094  27.270   8.400   1.516  0.2630 -0.0084 -0.0494
    1W        W32095  20.641  25.097   8.950 -0.2442 -0.0067 -0.1329
    1W        W32096  22.569  24.652   2.528 -0.0334  0.3213  0.1995
    1W        W32097  24.003  22.369   2.385  0.1149 -0.1058  0.1157
    1W        W32098  11.722   4.426   1.805  0.0619 -0.1561  0.2162
    1W        W32099   4.341  26.393   1.690  0.1492 -0.0738 -0.0461
    1W        W32100  19.024  23.161   0.452  0.0391  0.1926  0.4280
    1W        W32101   2.765   2.801   3.354  0.0056 -0.1533 -0.0216
    1W        W32102   7.887  21.815   8.863  0.0394 -0.0776 -0.1713
    1W        W32103  15.622  22.984   2.565 -0.1617 -0.1431 -0.0433
    1W        W32104  23.920  10.848   0.210 -0.1682 -0.3344 -0.0203
    1W        W32105  10.816   0.101   8.299  0.0442  0.5264 -0.1395
    1W        W32106  16.736   1.696   2.296  0.1562 -0.0931 -0.1037
    1W        W32107  25.426  17.826   0.243 -0.3469  0.0363 -0.3661
    1W        W32108  25.025   1.286   0.180 -0.1242 -0.3921  0.1482
    1W        W32109   5.133  11.468   8.739  0.0447 -0.0609  0.3584
    1W        W32110   0.140   3.812   2.166 -0.0515 -0.0611 -0.3262
    1W        W32111   6.918   8.500   6.997  0.0135 -0.1815 -0.0698
    1W        W32112   7.593  23.561   6.614 -0.1388  0.0924 -0.0005
    1W        W32113   1.654   6.784   3.245 -0.1135 -0.0008 -0.1049
    1W        W32114  13.323  27.304   9.392 -0.2684  0.2057  0.1118
    1W        W32115   2.287  12.768   8.848 -0.1483 -0.0406  0.1289
    1W        W32116   3.256  14.582   1.020  0.2689 -0.0092  0.3480
    1W        W32117   6.458   1.348   7.599 -0.1057 -0.1135  0.2704
    1W        W32118   5.945   4.579   8.226  0.1289  0.1632 -0.0765
    1W        W32119  19.042   0.535   7.205 -0.2847  0.0137 -0.2711
    1W        W32120  22.954   1.011   8.916  0.0581  0.1579 -0.0858
    1W        W32121   2.446   3.704   6.586 -0.1349 -0.0870 -0.0979
    1W        W32122  22.145  29.118   0.413 -0.0897 -0.1377 -0.1512
    1W        W32123   6.958   2.024   8.448 -0.2421 -0.0839  0.2742
    1W        W32124  24.439  15.972   6.686  0.1103 -0.0656  0.1144
    1W        W32125  10.316  18.617   9.012  0.1663 -0.0512 -0.0235
    1W        W32126  18.279   8.420   1.060  0.3764  0.1676 -0.2333
    1W        W32127  23.590  11.651   8.331  0.1806 -0.0335  0.3504
    1W        W32128  11.438  27.114   1.707  0.1161  0.2710  0.0314
    1W        W32129   7.334  24.282   0.985 -0.1421  0.2767 -0.2668
    1W        W32130  16.411  10.987   9.194 -0.0130 -0.0864 -0.0627
    1W        W32131   9.499  11.313   9.394  0.0515  0.1100  0.0240
    1W        W32132  25.869  22.854   7.866  0.1522  0.1175 -0.0709
    1W        W32133  28.609   2.195   8.533  0.3368 -0.1491 -0.0928
    1W        W32134  28.809  28.659   8.154 -0.1994  0.3590 -0.1208
    1W        W32135   6.086  12.673   1.015  0.1645  0.1241  0.1764
    1W        W32136   8.121   6.396   7.367  0.2425  0.0452  0.0561
    1W        W32137   2.101  21.079   9.300 -0.2260  0.3341 -0.0357
    1W        W32138   6.296  12.918   8.320 -0.0114 -0.0559  0.0744
    1W        W32139   5.340   7.388   7.698  0.0187  0.3636  0.2197
    1W        W32140   2.485   6.081   0.943 -0.1430  0.1656  0.1106
    1W        W32141  17.922  14.245   0.232 -0.0507  0.0967 -0.1118
    1W        W32142  13.877  15.015   0.299 -0.1151 -0.0175 -0.3263
    1W        W32143  21.283  24.444   6.214  0.3541 -0.5325 -0.0746
    1W        W32144  28.665  19.978   0.069 -0.0936  0.0643 -0.1213
    1W        W32145  12.603  28.857   3.011 -0.2979 -0.1685  0.2607
    1W        W32146   7.385  18.765   9.050  0.1708 -0.3028  0.2507
    1W        W32147  25.975   7.659   8.217 -0.2107 -0.1432 -0.1316
    1W        W32148   7.561  27.075   1.475 -0.0153  0.0837  0.0139
    1W        W32149  26.962  20.041   6.887 -0.1909 -0.2998  0.0856
    1W        W32150  21.164  18.129   2.569 -0.4090 -0.0102  0.0356
    1W        W32151  21.231  20.792   6.906 -0.1430 -0.1460 -0.1156
    1W        W32152  12.840  14.216   0.382  0.0251  0.1251  0.0351
    1W        W32153  19.029   3.999   1.881 -0.0796  0.1647  0.0745
    1W        W32154  14.815  25.737   2.477  0.2584  0.1981  0.3137
    1W        W32155  24.391   7.040   9.318  0.0093 -0.4532  0.2273
    1W        W32156  15.516  14.734   1.699 -0.1528  0.0461 -0.0257
    1W        W32157  27.349  11.177   2.700 -0.1776  0.2965  0.1542
    1W        W32158  10.572   5.942   1.731 -0.0517 -0.3540  0.0965
    1W        W32159  21.539   9.933   0.403 -0.0553  0.1912 -0.0978
    1W        W32160  19.458   9.113   1.781  0.0768  0.0424  0.1926
    1W        W32161  14.942  14.249   7.407  0.0262  0.3113 -0.2870
    1W        W32162   3.335  29.036   0.647 -0.0072 -0.1430 -0.2323
    1W        W32163   1.757  19.207   2.161  0.1733 -0.0996 -0.1197
    1W        W32164  21.071  18.569   7.160 -0.0412  0.2530 -0.1559
    1W        W32165  14.286   8.557   9.104 -0.1619 -0.2831 -0.0419
    1W        W32166   1.719  14.148   8.024  0.1399  0.0947  0.0523
    1W        W32167   4.464   0.553   1.946 -0.1739 -0.2701 -0.1115
    1W        W32168  18.684  28.239   8.442 -0.0626 -0.2939  0.2223
    1W        W32169   5.582  23.434   6.344  0.0984 -0.0477  0.0038
    1W        W32170  27.740   5.613   7.420 -0.1067 -0.1703 -0.2670
    1W        W32171  15.419  29.454   6.900  0.1049 -0.0486 -0.2259
    1W        W32172  13.228  12.042   8.514  0.2484  0.1514 -0.3024
    1W        W32173  29.754  24.263   0.516 -0.1344 -0.0864  0.0188
    1W        W32174   3.259   2.884   2.928 -0.0547  0.1639 -0.0624
    1W        W32175  10.043  19.678   0.759  0.2741 -0.1089  0.0447
    1W        W32176  22.661  22.898   2.339 -0.2274  0.0090 -0.0588
    1W        W32177  20.448  18.518   1.242 -0.3682 -0.2232  0.3266
    1W        W32178   6.044  21.769   8.988  0.0062 -0.1023  0.3350
    1W        W32179   9.389  26.334   0.968  0.3773 -0.0729 -0.2845
    1W        W32180  29.386  25.364   1.494  0.2903 -0.3923 -0.1071
    1W        W32181  12.110  10.976   0.533  0.0565 -0.1907  0.3697
    1W        W32182  14.169  25.598   0.031 -0.1398 -0.0034  0.0148
    1W        W32183  15.177  28.419   3.104 -0.0420  0.2251 -0.0670
    1W        W32184   4.502   2.098   2.008  0.1785  0.1159  0.1600
    1W        W32185  12.111  12.054   3.029 -0.1100  0.0653  0.0542
    1W        W32186  25.154   8.621   8.783  0.1618  0.0943 -0.1829
    1W        W32187   4.495  15.344   1.730 -0.1081 -0.0891  0.0452
    1W        W32188  11.257  26.137   9.302  0.1854  0.3125 -0.0726
    1W        W32189   5.192  15.384   7.208  0.2614 -0.0748 -0.0716
    1W        W32190  23.498  17.577   6.687 -0.1584  0.0668  0.2180
    1W        W32191  24.218  18.181   7.840  0.3167 -0.0619  0.0546
    1W        W32192  12.980   8.306   8.212 -0.0719 -0.3320  0.2553
    1W        W32193  13.776   5.261   6.710  0.1725  0.2514 -0.0731
    1W        W32194   3.584  13.985   5.539 -0.0099  0.0489  0.1692
    1W        W32195  11.723  14.644   9.158 -0.0232  0.0052  0.0734
    1W        W32196   4.782   4.038   3.098  0.2060  0.0796 -0.2052
    1W        W32197  22.109  14.454   8.582 -0.2910 -0.2959 -0.2930
    1W        W32198  22.255  15.038   8.753  0.0912  0.1689 -0.1340
    1W        W32199  24.578   6.440   9.037 -0.1426  0.2518  0.1155
    1W        W32200  16.291  15.056   0.098 -0.1098  0.4327 -0.0942
    1W        W32201  10.079  29.657   0.179  0.0708 -0.1272  0.0142
    1W        W32202   9.903   4.026   8.466  0.0208  0.4093 -0.0040
    1W        W32203  19.348   2.058   6.854  0.1146 -0.0498 -0.1463
    1W        W32204   1.203  10.071   6.372 -0.1528  0.2129  0.1739
    1W        W32205   8.202  19.748   8.854 -0.2348  0.1341  0.1737
    1W        W32206  16.502  19.317   8.092 -0.4748 -0.1328  0.0247
    1W        W32207  17.177   4.298   0.658  0.0131  0.0052  0.1036
    1W        W32208  10.530  28.171   7.972  0.1480  0.0618 -0.0551
    1W        W32209  11.360  19.625   6.589 -0.2335 -0.0500  0.0002
    1W        W32210   6.404   9.209   0.783  0.0727 -0.1265  0.0555
    1W        W32211   1.677  25.892   9.454  0.1682 -0.0364  0.2003
    1W        W32212  28.712   9.609   9.155 -0.2530  0.2448 -0.0429
    1W        W32213   0.930   1.621   2.711 -0.0086 -0.2183  0.0049
    1W        W32214  28.903  29.308   7.591  0.1919  0.0399 -0.0285
    1W        W32215   4.071   1.027   7.306 -0.2436  0.1308  0.1150
    1W        W32216  17.582  20.851   8.218 -0.1570 -0.2021 -0.1538
    1W        W32217   8.310  25.506   8.424  0.0281 -0.0748  0.1562
    1W        W32218  10.431  13.187   0.661 -0.2006  0.0692 -0.0369
    1W        W32219  14.644  25.355   1.337  0.2339  0.0061 -0.2232
    1W        W32220  19.700   3.858   8.906 -0.0524 -0.2117 -0.1231
    1W        W32221   4.803   2.868   3.822  0.0251  0.2335 -0.1190
    1W        W32222  13.626  11.085   9.396  0.0932 -0.2740 -0.2241
    1W        W32223   2.924  21.565   8.590 -0.0656 -0.1192  0.0813
    1W        W32224   1.728  23.411   1.310  0.2287 -0.1339 -0.1494
    1W        W32225   6.568  23.684   1.032  0.1187 -0.0984 -0.0247
    1W        W32226  10.315   6.471   8.353  0.0386 -0.1491  0.0617
    1W        W32227   8.915   8.734   1.063  0.1331  0.1008  0.1290
    1W        W32228  13.502   1.968   9.183  0.1783 -0.0324  0.1574
    1W        W32229  16.843  19.613   9.427  0.1978  0.0034  0.1032
    1W        W32230  25.659  10.782   2.463  0.0822  0.1649 -0.5123
    1W        W32231  25.043   2.030   2.306 -0.3212 -0.0837 -0.1390
    1W        W32232   4.127  26.916   6.840 -0.3294  0.1505  0.1311
    1W        W32233  14.214  23.055   8.888  0.0468  0.2810  0.1794
    1W        W32234   2.496  17.541   2.704 -0.2668  0.1033  0.1376
    1W        W32235  22.547  22.260   7.812  0.2286 -0.0491  0.1003
    1W        W32236  14.505  17.280   1.907  0.1886 -0.0634 -0.0217
    1W        W32237   5.851  10.401   7.875 -0.2322 -0.0676  0.2078
    1W        W32238   6.026   3.656   9.310 -0.0725  0.2356  0.1797
    1W        W32239   5.354  17.740   7.041  0.0087  0.1383 -0.0046
    1W        W32240   5.766   2.060   2.568 -0.2848 -0.0105  0.1277
    1W        W32241  23.150  11.686   0.384 -0.0111  0.0406 -0.0882
    1W        W32242   9.456   9.214   7.916 -0.0757  0.1839 -0.2412
    1W        W32243  10.869   4.651   9.224 -0.0974 -0.0241 -0.1685
    1W        W32244  26.513  20.989   0.961 -0.0672 -0.1326  0.0855
    1W        W32245   2.588  20.917   0.998  0.0415  0.0589  0.4350
    1W        W32246  15.522  16.950   2.295 -0.0381 -0.4250 -0.2342
    1W        W32247   1.001  17.370   7.660  0.2572 -0.0379 -0.1048
    1W        W32248  13.163  24.222   0.661  0.0975  0.0685 -0.1951
    1W        W32249  21.447  22.418   3.509 -0.0976 -0.1824  0.1040
    1W        W32250  28.495  12.811   8.463 -0.0729 -0.3481  0.5048
    1W        W32251  20.809  11.899   1.514 -0.0996 -0.0073 -0.1184
    1W        W32252   1.388  25.744   2.131  0.0057  0.3046 -0.1001
    1W        W32253   3.132  17.936   1.664 -0.0507 -0.2551 -0.0983
    1W        W32254  15.925  22.443   7.150  0.1821 -0.4225 -0.2005
    1W        W32255  22.927  23.484   9.383 -0.1496 -0.2152  0.0824
    1W        W32256  10.473  23.155   1.624  0.1224 -0.4233  0.0245
    1W        W32257  12.803   3.031   0.363  0.0544 -0.0584  0.0148
    1W        W32258  23.505   4.029   1.824  0.0172  0.2063 -0.1171
    1W        W32259   3.127  16.876   6.158  0.0252  0.3797 -0.1309
    1W        W32260   7.686  24.777   1.846 -0.2178  0.1679 -0.0902
    1W        W32261  25.086  26.525   2.670 -0.0771 -0.3188 -0.0156
    1W        W32262  17.899  27.299   1.561  0.0719 -0.0611 -0.1319
    1W        W32263  22.303   0.945   9.409  0.1036  0.2350  0.0987
    1W        W32264  22.447  27.530   0.336  0.3204 -0.1581 -0.0241
    1W        W32265  14.261  24.264   6.029  0.1723 -0.3468 -0.1322
    1W        W32266  13.191   5.973   7.736 -0.0135 -0.2022 -0.0337
    1W        W32267   4.798   0.701   0.646 -0.0107 -0.0101 -0.1506
    1W        W32268   8.682   4.088   9.343 -0.0471 -0.2205 -0.1887
    1W        W32269  18.656   2.076   7.616 -0.0455  0.0834 -0.0252
    1W        W32270  17.820  22.337   1.035 -0.0240 -0.4375  0.3736
    1W        W32271  20.186   1.046   2.343 -0.3025  0.1954  0.2052
    1W        W32272  27.811  21.193   1.826 -0.0052  0.0570 -0.0174
    1W        W32273   6.832  13.638   0.805 -0.1883 -0.5627  0.2437
    1W        W32274   8.657  12.741   0.747  0.0023 -0.2466 -0.0625
    1W        W32275   5.534  15.567   7.674 -0.0120 -0.0379 -0.2037
    1W        W32276  20.623  16.417   9.024  0.3691  0.0491  0.0352
    1W        W32277  25.942  16.064   0.322  0.0679  0.0759 -0.3436
    1W        W32278  27.463  21.702   2.167  0.1515  0.4250  0.3736
    1W        W32279   2.258  26.165   2.061 -0.1508 -0.3538  0.3339
    1W        W32280   3.320  26.740   7.196 -0.0870 -0.1018 -0.5001
    1W        W32281  12.920   1.313   0.498 -0.0818  0.4320 -0.2672
    1W        W32282  19.966  18.807   9.209 -0.3599 -0.2299  0.0298
    1W        W32283  24.804  20.141   1.638 -0.1526  0.1326  0.1092
    1W        W32284  23.946  15.929   5.974 -0.2982  0.0760 -0.1815
    1W        W32285   9.385  19.059   1.714 -0.0940 -0.3291  0.0716
    1W        W32286   8.231   5.515   7.274 -0.1389 -0.0193  0.0377
    1W        W32287  11.605   6.006   2.161 -0.0988  0.2498 -0.2344
    1W        W32288  19.556   7.024   8.844 -0.0496  0.3046  0.0289
    1W        W32289  11.342  27.719   1.419  0.1586  0.0221  0.0464
    1W        W32290  11.981  25.637   6.946  0.0546  0.3280 -0.1634
    1W        W32291  13.443   8.616   1.862 -0.3128  0.1043 -0.1329
    1W        W32292   9.429  29.030   2.260 -0.2418 -0.0865 -0.2549
    1W        W32293  13.900  19.624   9.053 -0.2831  0.1093 -0.2322
    1W        W32294   2.431  28.120   1.215  0.0240  0.0701  0.0658
    1W        W32295   8.594   6.534   8.166 -0.1402 -0.0411  0.3712
    1W        W32296  17.357   0.441   0.502 -0.1880  0.0033 -0.0375
    1W        W32297   2.543  22.415   1.127  0.0021  0.0055 -0.1991
    1W        W32298  22.203  27.150   2.236 -0.1411 -0.0940 -0.1821
    1W        W32299   8.290  14.534   1.978  0.3640 -0.0569  0.1407
    1W        W32300  19.028  22.392   3.244  0.3591 -0.0700  0.1922
    1W        W32301  11.127  20.512   0.570 -0.2540  0.0855  0.1005
    1W        W32302  16.797   3.384   9.274  0.1214  0.3161  0.0374
    1W        W32303   6.147  20.497   7.022  0.0113  0.2255 -0.3151
    1W        W32304   9.335  29.212   9.311  0.0913 -0.1190 -0.0087
    1W        W32305  20.468  13.166   6.825  0.0336 -0.2494  0.4328
    1W        W32306   2.369   5.825   9.032 -0.0176  0.0909  0.1140
    1W        W32307  16.184  28.555   1.182 -0.1775  0.0159  0.5503
    1W        W32308  27.279  27.810   8.477 -0.0786 -0.0928 -0.1184
    1W        W32309  17.141   8.685   0.137  0.0175  0.2595 -0.2184
    1W        W32310   5.237  26.442   1.711 -0.2509  0.0834  0.1680
    1W        W32311   5.088  17.346   7.990 -0.4765 -0.0289 -0.2339
    1W        W32312   2.904  27.941   1.354 -0.0737  0.3451  0.1433
    1W        W32313   6.022  19.848   2.207  0.1003  0.2459 -0.1489
    1W        W32314  14.219  17.742   8.068  0.3842  0.1915 -0.2000
    1W        W32315   7.134   2.032   3.286 -0.3450  0.0360 -0.3191
    1W        W32316  21.022   9.976   7.755 -0.0079 -0.2608  0.1518
    1W        W32317   0.137   7.006   0.015  0.0309 -0.1509 -0.1139
    1W        W32318  24.872  29.384   0.972  0.1184 -0.2645  0.1305
    1W        W32319  12.909  14.917   8.434 -0.1076 -0.0868 -0.1107
    1W        W32320  11.007  16.898   8.023 -0.1253 -0.2647 -0.0272
    1W        W32321   6.584  14.224   2.566  0.2385 -0.4166  0.0655
    1W        W32322  25.838  24.153   0.397 -0.1194 -0.0509  0.1231
    1W        W32323   4.208  23.442   7.454  0.1162 -0.1897  0.4721
    1W        W32324  26.507  17.148   2.083 -0.0048 -0.1545 -0.1509
    1W        W32325  19.679  29.597   8.518 -0.0159 -0.4817 -0.1701
    1W        W32326   8.602  28.240   6.585  0.0865 -0.0631  0.1728
    1W        W32327  29.484   5.486   6.272 -0.0973 -0.1273 -0.1142
    1W        W32328   5.626   5.461   3.422  0.0937 -0.5554  0.0388
    1W        W32329   9.105  15.914   8.137 -0.0587 -0.0871  0.2934
    1W        W32330  22.705   8.563   2.087 -0.0486 -0.1585  0.0962
    1W        W32331   6.379  15.568   2.052 -0.2176  0.1080  0.2027
    1W        W32332   8.526   1.540   0.720 -0.3698  0.1152  0.1578
    1W        W32333  12.799   4.664   7.697  0.1198 -0.0129  0.1111
    1W        W32334  14.515  14.597   1.549 -0.0922 -0.2250  0.0001
    1W        W32335  26.189  24.947   0.446  0.2178  0.0810 -0.1426
    1W        W32336  19.795  13.295   1.824 -0.1418  0.0539  0.0119
    1W        W32337  19.096   9.478   8.747  0.1249  0.4384  0.0698
    1W        W32338  10.943   5.097   0.610  0.2265 -0.1214  0.2332
    1W        W32339  15.962  14.766   6.355 -0.2430  0.0914 -0.3628
    1W        W32340  26.024  13.599   1.328 -0.1616 -0.1456 -0.0072
    1W        W32341   4.762  28.026   2.132  0.0301 -0.3756 -0.2074
    1W        W32342  25.747  29.524   6.645 -0.3889  0.1888 -0.0611
    1W        W32343  23.353   3.879   2.799 -0.1536  0.5186 -0.2332
    1W        W32344   4.792  16.653   7.022 -0.2056 -0.1447 -0.0474
    1W        W32345   0.115   8.235   0.996 -0.0012 -0.0722 -0.4906
    1W        W32346  12.005  24.981   1.424 -0.1763  0.0517  0.0229
    1W        W32347  18.840  24.643   1.265  0.0134  0.0374 -0.0865
    1W        W32348   9.578   7.340   2.984 -0.1278  0.1162  0.0195
    1W        W32349   0.350   2.413   8.953  0.1877 -0.4606 -0.1331
    1W        W32350   4.824  16.371   1.542 -0.0616  0.2524 -0.1327
    1W        W32351  29.379  15.473   7.888 -0.0913  0.0165  0.0556
    1W        W32352  12.689  19.224   7.024 -0.2007  0.3038 -0.3080
    1W        W32353   7.618   8.725   0.162 -0.1999 -0.3030  0.0957
    1W        W32354  18.958  27.289   1.957  0.2407  0.0101  0.0367
    1W        W32355  24.491   3.172   7.934 -0.0208 -0.1199 -0.2648
    1W        W32356   1.775  22.085   9.196 -0.1042  0.3416  0.3425
    1W        W32357  13.757   8.763   6.965 -0.1305  0.5092  0.1131
    1W        W32358  29.124  18.392   6.436 -0.1489  0.0508 -0.3049
    1W        W32359   1.318  28.380   9.213 -0.2442 -0.0387  0.2491
    1W        W32360  15.447  19.862   7.503  0.1615 -0.1093  0.2837
    1W        W32361   7.077  21.591   7.650  0.1294 -0.1401  0.1396
    1W        W32362  23.482   7.870   0.213 -0.0075  0.0878 -0.0314
    1W        W32363   0.193  16.925   7.366  0.0893  0.0059 -0.0706
    1W        W32364  29.627   5.449   3.289  0.2148 -0.1722 -0.2110
    1W        W32365   1.459  23.145   8.739 -0.0106  0.1496  0.0592
    1W        W32366  18.282  14.597   6.994  0.0021  0.0278 -0.3395
    1W        W32367  10.570  18.793   8.027 -0.0240  0.1734 -0.1421
    1W        W32368  23.547   6.491   2.170 -0.0025 -0.1533 -0.2862
    1W        W32369  22.569  15.953   0.582  0.0715  0.2033 -0.0379
    1W        W32370  28.497  16.603   1.211 -0.0949  0.1148 -0.0849
    1W        W32371   1.880  25.273   1.340 -0.1465  0.2323 -0.2376
    1W        W32372  15.585  17.659   7.280 -0.0112 -0.1370  0.0134
    1W        W32373  19.636  10.972   8.242 -0.0372 -0.0305 -0.1244
    1W        W32374  15.935  24.140   1.456 -0.2391  0.1746 -0.2325
    1W        W32375   1.994  19.409   8.399  0.1948 -0.2576  0.0082
    1W        W32376   4.435  14.686   5.931 -0.1831 -0.2312  0.1786
    1W        W32377  26.373   1.961   0.427  0.2295 -0.1035 -0.2688
    1W        W32378  11.720  18.381   1.711  0.0391  0.0018  0.3124
    1W        W32379  11.621   6.363   9.012 -0.0960 -0.0908  0.2042
    1W        W32380  15.296  27.387   8.949  0.3050 -0.1241  0.2595
    1W        W32381  12.580  12.728   1.708 -0.0100 -0.3396 -0.0331
    1W        W32382   0.369   3.501   7.865 -0.3051  0.0847  0.2792
    1W        W32383  27.766   0.835   1.932 -0.0122  0.3651  0.0204
    1W        W32384  13.934   6.315   0.747  0.1216 -0.2986  0.0242
    1W        W32385  20.602  23.723   8.420 -0.1296  0.0802  0.0263
    1W        W32386  27.967  18.190   0.271  0.1907 -0.0590  0.0563
    1W        W32387  20.432   5.926   6.973 -0.1637 -0.1082 -0.2476
    1W        W32388  22.479   8.668   7.916  0.1143 -0.0366  0.2525
    1W        W32389   4.103  24.728   0.737 -0.0902  0.2672  0.2139
    1W        W32390   1.681   4.084   7.047  0.2074  0.0510  0.0809
    1W        W32391  22.786   9.454   7.102 -0.1332  0.3009  0.2655
    1W        W32392  27.710  12.322   7.907 -0.1057  0.1295 -0.1052
    1W        W32393   0.453  29.669   7.671 -0.1125  0.3442 -0.1749
    1W        W32394  17.966   3.033   7.762 -0.0002 -0.1042  0.1109
    1W        W32395  17.588   7.247   2.008 -0.0779 -0.1003 -0.1492
    1W        W32396  27.944  25.992   9.184  0.2729 -0.1589  0.0220
    1W        W32397   6.144  12.013   2.104  0.0103 -0.0453  0.0282
    1W        W32398  10.842   9.724   0.521 -0.1052  0.0856  0.1181
    1W        W32399   4.556   8.947   2.195 -0.2170  0.1221 -0.3767
    1W        W32400  20.408  11.374   2.154  0.1731  0.3615 -0.0454
    1W        W32401  17.629  22.624   8.346 -0.0968  0.2843  0.0051
    1W        W32402  25.243  25.662   1.188  0.2265 -0.0279  0.2760
    1W        W32403  14.272   1.114   0.408  0.3031  0.2683 -0.0432
    1W        W32404   8.242  10.065   8.002 -0.1934 -0.0775 -0.2519
    1W        W32405  28.928  11.541   6.878  0.0184  0.2430 -0.1728
    1W        W32406   1.250   5.642   0.748 -0.1364 -0.1634  0.0724
    1W        W32407  14.420  21.301   1.200 -0.1593  0.3217  0.1867
    1W        W32408  15.454  25.446   8.039 -0.0981  0.1237 -0.1626
    1W        W32409  29.337  10.927   8.253 -0.0541 -0.0677 -0.0620
    1W        W32410  22.987  14.547   2.197 -0.1410  0.3215 -0.5120
    1W        W32411  23.162   8.301   8.924  0.5956  0.2167  0.1351
    1W        W32412   9.904   3.241   8.372  0.1883 -0.2219  0.2965
    1W        W32413  21.527   4.290   8.804  0.4142 -0.3228 -0.1334
    1W        W32414  18.068  28.463   2.578 -0.1796 -0.1127 -0.0691
    1W        W32415   2.440  16.904   7.748  0.2448  0.2412 -0.0005
    1W        W32416   2.716   1.153   2.493  0.0673 -0.1510  0.1219
    1W        W32417   0.637  22.758   7.755  0.3121 -0.0303 -0.2504
    1W        W32418  28.370  21.011   7.860  0.0090 -0.1560  0.2202
    1W        W32419  19.788  27.856   0.555 -0.2854  0.0732 -0.2842
    1W        W32420  29.082  27.045   0.249 -0.2948  0.1208 -0.0925
    1W        W32421   6.577  11.355   8.630 -0.1612 -0.3758  0.0914
    1W        W32422  14.794  17.632   0.643 -0.2704  0.1493  0.2132
    1W        W32423  16.948   7.883   8.565  0.0521  0.2143 -0.1571
    1W        W32424  13.549  12.523   9.260 -0.1476  0.0603  0.1720
    1W        W32425   7.759   5.378   3.229  0.0280 -0.1758  0.0298
    1W        W32426   9.171   0.709   0.923  0.1038  0.0992 -0.1043
    1W        W32427   4.981  28.283   2.493  0.0238  0.3125 -0.1773
    1W        W32428   2.426  12.060   8.708 -0.0508  0.1840 -0.2178
    1W        W32429  14.647  26.918   3.650  0.0824 -0.0930 -0.0504
    1W        W32430  22.162  10.318   6.382  0.2696 -0.0800  0.0123
    1W        W32431   3.961   3.126   7.364 -0.0053  0.1132 -0.0465
    1W        W32432   3.370  26.295   6.935 -0.1600  0.0375  0.1979
    1W        W32433  22.667  14.887   1.221  0.0319 -0.1111  0.0048
    1W        W32434   7.486  19.009   9.449  0.0705  0.2306 -0.0017
    1W        W32435   1.919   1.129   6.601 -0.0243  0.2110 -0.1828
    1W        W32436   2.438  22.810   8.497 -0.2334  0.1511  0.0730
    1W        W32437  25.811   8.749   1.775 -0.3482 -0.0043  0.0634
    1W        W32438  10.509  21.696   6.964  0.2613  0.1619  0.1205
    1W        W32439   2.886   6.391   8.016  0.0021 -0.1894 -0.3276
    1W        W32440  18.592  19.804   7.646  0.2981  0.1094  0.2040
    1W        W32441  24.897  17.307   7.054  0.1951  0.1375 -0.2169
    1W        W32442  25.885  20.572   8.604 -0.0123 -0.0380  0.0141
    1W        W32443   0.266  20.308   7.494 -0.0396  0.2721 -0.1163
    1W        W32444   5.441  16.297   0.368  0.4475 -0.0106  0.1053
    1W        W32445   4.186   2.224   2.895 -0.1268 -0.0204  0.1959
    1W        W32446  26.479   1.679   6.930  0.0313 -0.0219 -0.0837
    1W        W32447  12.790  23.166   2.090  0.1803 -0.2283  0.0256
    1W        W32448   1.264  22.526   5.708 -0.1957 -0.0648  0.0573
    1W        W32449  27.210  17.751   0.105  0.3133  0.0744 -0.0707
    1W        W32450  14.924  22.114   0.099  0.0486  0.0295  0.1731
    1W        W32451   0.811  19.815   2.031 -0.0130  0.0381  0.0823
    1W        W32452  15.384   8.076   8.459 -0.0190  0.2715  0.0511
    1W        W32453   8.160  18.326   8.651 -0.2030  0.1721 -0.0802
    1W        W32454  19.756  17.534   7.106  0.0936  0.3961  0.2608
    1W        W32455   6.962  18.446   2.000  0.2310 -0.2623  0.3534
    1W        W32456   7.078  29.202   6.863  0.1452 -0.1580 -0.4778
    1W        W32457  15.440   0.297   0.584 -0.0645 -0.2932 -0.0111
    1W        W32458   3.248  20.649   1.984 -0.1292 -0.1548  0.4187
    1W        W32459   8.806  12.532   2.408 -0.0583 -0.1712 -0.2427
    1W        W32460  29.480  21.455   8.936 -0.0510  0.0820 -0.1020
    1W        W32461   7.967  19.845   1.658 -0.0913 -0.1107  0.2972
    1W        W32462   4.453  10.789   2.707  0.0772 -0.1656 -0.0033
    1W        W32463   8.046   9.049   7.293  0.0372  0.1305 -0.1192
    1W        W32464  16.068   4.433   0.674 -0.2489 -0.5394  0.0387
    1W        W32465  25.423  11.156   0.287  0.0130 -0.0815  0.0468
    1W        W32466  16.466  21.549   1.756  0.1926 -0.0112 -0.0155
    1W        W32467  28.743   4.127   6.604 -0.0783 -0.1954  0.2434
    1W        W32468  10.912  19.417   9.120  0.0408  0.2199 -0.0723
    1W        W32469  20.051   6.542   7.583  0.0078 -0.1347  0.5390
    1W        W32470   5.901   6.199   2.783  0.1239 -0.1257 -0.0759
    1W        W32471  24.082  20.220   6.936  0.1440  0.0094  0.0345
    1W        W32472  14.937  15.489   9.399  0.0692 -0.2742  0.0755
    1W        W32473   3.955  12.625   8.089 -0.0826 -0.2766  0.0452
    1W        W32474   9.129   8.894   2.248  0.1289 -0.0117  0.0612
    1W        W32475   9.637  29.594   3.000 -0.1066  0.0061 -0.2098
    1W        W32476   8.066   5.384   0.869 -0.0278 -0.1476 -0.0958
    1W        W32477  21.450   6.163   1.552  0.0350 -0.0985  0.3049
    1W        W32478  21.202  14.516   1.173  0.0320 -0.1357  0.3170
    1W        W32479  25.316  17.196   6.746 -0.2324 -0.2949 -0.2664
    1W        W32480   4.365  11.087   7.125 -0.1780 -0.1651 -0.0685
    1W        W32481   7.453  23.111   7.717 -0.2056  0.2221  0.1254
    1W        W32482  14.680  14.955   6.888 -0.3031 -0.0212  0.0263
    1W        W32483   4.840  27.083   8.963  0.3426 -0.0806  0.1608
    1W        W32484   7.710  14.259   0.931  0.2430  0.1225  0.0994
    1W        W32485  13.148  18.374   7.443  0.1682  0.0341 -0.0784
    1W        W32486  19.237  23.698   8.406 -0.0866 -0.0757 -0.1767
    1W        W32487   6.162  14.321   7.238 -0.0138 -0.2183 -0.1304
    1W        W32488  11.688   2.245   3.093  0.0794 -0.1562 -0.0519
    1W        W32489  27.853  26.340   6.813 -0.0461 -0.1414 -0.0584
    1W        W32490  20.095   4.387   0.079 -0.0469  0.0858 -0.1956
    1W        W32491  23.995   1.482   1.734  0.0477  0.1394  0.1869
    1W        W32492  15.424   5.928   0.853 -0.0440  0.1297  0.0508
    1W        W32493  13.003   0.711   1.342 -0.2102  0.4206 -0.1715
    1W        W32494  18.001   2.800   0.354  0.0199 -0.1208 -0.2075
    1W        W32495  17.354  24.756   2.403  0.0758 -0.1651  0.2543
    1W        W32496   3.418   9.555   2.953  0.0111 -0.1951  0.1312
    1W        W32497   8.315   2.522   2.200 -0.0188 -0.0084  0.0076
    1W        W32498   7.278   2.768   0.677 -0.0717 -0.1632 -0.2517
    1W        W32499  10.341   5.835   2.481 -0.0739  0.0812 -0.2962
    1W        W32500   0.777  19.979   8.621  0.2367 -0.1783 -0.0091
    1W        W32501  25.629   3.623   2.851  0.0534 -0.0025  0.2804
    1W        W32502  15.867   0.812   7.727 -0.2230 -0.0004  0.0197
    1W        W32503  22.697   0.934   0.520  0.0488  0.1502 -0.0408
    1W        W32504  23.129   2.610   0.391  0.2171  0.1950 -0.3434
    1W        W32505  24.046  28.193   8.427  0.0956  0.1266 -0.1507
    1W        W32506  11.182  27.093   6.829  0.1160 -0.0389  0.2075
    1W        W32507  10.368   3.007   1.573  0.1734  0.1121  0.3306
    1W        W32508  23.842   6.422   9.249 -0.0830 -0.1726 -0.1058
    1W        W32509  29.277  25.410   7.957 -0.0768 -0.0745  0.2681
    1W        W32510  27.113  23.279   2.358 -0.0518 -0.0963 -0.0713
    1W        W32511  28.788   7.511   8.927 -0.3417 -0.2034 -0.1264
    1W        W32512   1.641  18.438   9.257 -0.0391 -0.1966  0.0514
    1W        W32513   4.092  23.839   7.090  0.1394 -0.3561 -0.2747
    1W        W32514  14.775   7.587   0.363 -0.0935  0.1755  0.3852
    1W        W32515   0.311  25.372   7.312 -0.1284  0.0099  0.2593
    1W        W32516   9.332   8.426   0.428  0.2006  0.3318  0.3740
    1W        W32517  27.809  17.535   1.089 -0.3458 -0.1198  0.3036
    1W        W32518  24.676  20.790   9.206  0.0707  0.0066 -0.2399
    1W        W32519   7.471  24.389   7.636  0.0399 -0.3327  0.1758
    1W        W32520  10.695  18.951   6.778  0.1476 -0.1297 -0.1766
    1W        W32521   4.288  12.259   2.221  0.0497  0.1116 -0.0372
    1W        W32522  14.748   8.164   2.191  0.0931  0.2314  0.0588
    1W        W32523   8.617  27.596   1.527 -0.0866 -0.0131 -0.3197
    1W        W32524  17.412  19.372   2.126  0.2324  0.2047 -0.1978
    1W        W32525  28.604  12.817   1.085  0.0904 -0.0410  0.0788
    1W        W32526   4.762  20.259   7.764 -0.3139  0.1082 -0.2980
    1W        W32527  12.685  24.574   7.019  0.0096  0.2165 -0.2618
    1W        W32528  22.255  13.199   6.621  0.2636 -0.3562 -0.1504
    1W        W32529  21.479  14.745   2.166 -0.1864 -0.0727 -0.1809
    1W        W32530  28.144  15.683   8.692  0.3800  0.0058 -0.2612
    1W        W32531  15.232  14.543   7.113 -0.0017 -0.1618  0.1623
    1W        W32532  14.837  23.987   8.681  0.1242 -0.0550 -0.0279
    1W        W32533  10.253  26.834   7.947  0.1855  0.0478 -0.1907
    1W        W32534  17.937  28.374   3.742  0.1238 -0.1233  0.2530
    1W        W32535   1.664  17.198   7.385  0.0543 -0.2008  0.0516
    1W        W32536   1.324  21.059   6.746 -0.0707 -0.3606 -0.1617
    1W        W32537  17.135  20.077   0.909 -0.0030 -0.0751 -0.1383
    1W        W32538   0.454  21.675   1.030 -0.0536 -0.0274 -0.0458
    1W        W32539   2.084   2.039   2.553  0.2040  0.3475  0.2326
    1W        W32540  24.757  23.238   8.235 -0.0196  0.1252  0.0531
    1W        W32541  23.213  12.809   6.557 -0.0839 -0.0085 -0.0595
    1W        W32542  14.896   2.919   2.297 -0.1673 -0.0346 -0.2492
    1W        W32543   0.359   5.521   8.574  0.1915  0.0934  0.0446
    1W        W32544   8.315  10.921   0.303 -0.0359 -0.0438  0.2555
    1W        W32545  15.185  22.824   6.463  0.0907 -0.1892 -0.1794
    1W        W32546   2.408  18.044   9.227  0.0059 -0.0847 -0.1448
    1W        W32547  16.389   2.944   7.870 -0.0317 -0.1056  0.0905
    1W        W32548  18.143   3.321   0.874 -0.1620 -0.0833  0.3192
    1W        W32549  17.911  15.485   7.410 -0.2145  0.1809  0.2241
    1W        W32550   7.790  13.420   7.872 -0.1306  0.0136  0.2342
    1W        W32551  13.890  27.425   7.567  0.1646  0.1250  0.3457
    1W        W32552  12.168  17.460   6.636  0.0741 -0.2566  0.0730
    1W        W32553   9.737  22.908   1.240  0.0355 -0.1236 -0.1306
    1W        W32554  10.774  20.041   8.258  0.0573  0.2813  0.0645
    1W        W32555  15.151   5.217   2.177 -0.1800  0.0756  0.0767
    1W        W32556  20.217  13.317   8.309  0.0618 -0.1849 -0.2125
    1W        W32557  13.820   2.039   3.503 -0.0522  0.1374  0.0116
    1W        W32558  20.081  28.486   1.973 -0.3550 -0.2395  0.1775
    1W        W32559  16.976  15.003   1.572  0.0776  0.1791  0.0885
    1W        W32560   6.512   7.218   1.638  0.2083 -0.2762  0.0176
    1W        W32561  12.345   6.355   3.030  0.0546  0.1109 -0.0988
    1W        W32562   9.638   9.677   8.771  0.0662  0.3202 -0.1191
    1W        W32563   1.797  25.107   6.537  0.0884 -0.0373  0.0905
    1W        W32564  20.510  22.017   2.789  0.0664  0.1446  0.1279
    1W        W32565  22.128  20.851   8.365  0.0124  0.3022 -0.2349
    1W        W32566  27.987   9.965   5.892 -0.1374  0.2991 -0.2762
    1W        W32567  17.672  28.071   1.481 -0.3216 -0.2146  0.0612
    1W        W32568  18.263  15.079   1.228 -0.0487 -0.0013  0.1765
    1W        W32569   2.790  11.099   0.514  0.4422  0.0958 -0.0380
    1W        W32570  28.534  20.793   8.334 -0.3251 -0.2021 -0.0324
    1W        W32571   5.260   1.684   1.832 -0.0867  0.1186 -0.1125
    1W        W32572  20.509  17.001   2.311 -0.0721 -0.0724  0.0422
    1W        W32573  13.639   0.723   0.666 -0.0776 -0.0500  0.1811
    1W        W32574  11.480   5.345   0.824 -0.1358 -0.3353 -0.0566
    1W        W32575  27.140  23.729   2.207 -0.0243  0.1645 -0.0706
    1W        W32576   0.282   2.746   8.182 -0.0602  0.1090  0.0248
    1W        W32577  14.399  26.396   0.963 -0.0542 -0.2621 -0.0279
    1W        W32578   9.704   0.148   7.504  0.2975  0.1687 -0.2668
    1W        W32579  11.778   4.668   2.854  0.1096  0.0513 -0.0133
    1W        W32580  16.929  24.168   9.279  0.0290 -0.1034  0.2080
    1W        W32581  17.369  15.824   1.183  0.5165  0.0890  0.0429
    1W        W32582  11.051   3.300   2.595 -0.2173  0.0399 -0.0085
    1W        W32583  18.270   2.610   9.455 -0.3481  0.2980  0.1145
    1W        W32584  28.704   0.777   0.666  0.0829 -0.2343 -0.2634
    1W        W32585  14.574  19.898   0.130 -0.2096 -0.2667 -0.0808
    1W        W32586  24.018  29.053   0.693  0.1334 -0.1800 -0.2801
    1W        W32587  16.520  28.739   8.889  0.2135  0.0316  0.1736
    1W        W32588  28.396  27.344   7.779 -0.0600 -0.0547  0.2130
    1W        W32589  24.378   4.250   9.392  0.0930  0.1561 -0.0208
    1W        W32590   8.637  11.398   2.047 -0.0330 -0.1528 -0.0693
    1W        W32591  28.214  17.569   8.086 -0.0574 -0.3733 -0.0280
    1W        W32592  17.220  25.009   1.603 -0.1176 -0.0960 -0.0891
    1W        W32593  10.827  26.437   7.262  0.1110  0.1186 -0.2688
    1W        W32594  14.540  13.094   7.598  0.1389  0.1968  0.2623
    1W        W32595  28.783   2.668   6.763 -0.0882 -0.2117  0.1498
    1W        W32596  10.811  18.068   1.596  0.0148  0.0570  0.4209
    1W        W32597  17.766  20.823   7.710  0.1827 -0.0771 -0.4169
    1W        W32598  29.272   1.033   8.725  0.0859 -0.1158 -0.3173
    1W        W32599  25.851  28.467   9.420  0.0971  0.0260  0.1150
    1W        W32600   0.230  20.477   6.861 -0.1070  0.1542  0.0580
    1W        W32601   6.765   3.438   1.189 -0.0146 -0.0980 -0.0234
    1W        W32602  26.345  28.889   7.793 -0.0934  0.2253 -0.1376
    1W        W32603  10.211  15.321   7.399 -0.3033  0.0318 -0.1763
    1W        W32604  24.129  24.538   0.577  0.0793 -0.1188 -0.0993
    1W        W32605  16.412   6.818   9.118  0.2502  0.0541 -0.3235
    1W        W32606   8.723  20.113   6.484  0.2062  0.1706 -0.1107
    1W        W32607  29.705  27.731   9.311  0.5120  0.1089  0.0753
    1W        W32608   3.228  15.818   6.440  0.2408 -0.2240  0.2322
    1W        W32609  24.553  20.879   2.762  0.1770 -0.2035  0.2979
    1W        W32610  17.422  29.171   7.919 -0.1878  0.1919 -0.0055
    1W        W32611  11.996  12.574   2.914 -0.0274 -0.1889 -0.0312
    1W        W32612   0.940  14.796   2.061 -0.3161  0.0061  0.2509
    1W        W32613  27.320  17.541   7.097  0.2784 -0.0582 -0.2811
    1W        W32614   7.226   7.915   0.385 -0.1397  0.2815 -0.1722
    1W        W32615  28.699  10.725   1.259  0.3906 -0.0958 -0.2954
    1W        W32616   8.690  27.845   0.091  0.1818  0.2542  0.0988
    1W        W32617   3.491   1.146   2.191  0.2285 -0.0752  0.0721
    1W        W32618  12.618  15.497   6.586  0.0222 -0.2918 -0.1273
    1W        W32619   3.200  17.369   0.193 -0.2047  0.2376 -0.1481
    1W        W32620  21.534  25.607   2.424  0.1729  0.0186  0.0316
    1W        W32621   7.635  29.251   3.040  0.1814 -0.2127  0.0640
    1W        W32622  24.029  24.002   8.130 -0.3805  0.2168  0.0368
    1W        W32623   4.689  11.099   8.632  0.0047  0.2237  0.1488
    1W        W32624  19.030  14.412   9.413 -0.0239  0.1085 -0.1741
    1W        W32625  29.155  27.818   9.111  0.0666 -0.2135  0.1171
    1W        W32626  10.337  24.585   8.824  0.0563  0.2212  0.2367
    1W        W32627  29.667  26.908   0.453 -0.1347 -0.1472  0.3006
    1W        W32628  19.338  26.863   2.035  0.4332  0.1142 -0.0125
    1W        W32629  10.190  24.254   6.893  0.2202 -0.1361 -0.0548
    1W        W32630  26.269   5.030   0.123  0.3865 -0.1188 -0.1617
    1W        W32631  19.960  23.281   3.064  0.1369  0.1033 -0.2865
    1W        W32632  21.775   6.249   8.400  0.1489 -0.0168 -0.2774
    1W        W32633   7.896  10.535   3.526 -0.1350  0.0608 -0.2058
    1W        W32634  17.767   1.951   3.222  0.2192 -0.1332 -0.2175
    1W        W32635  18.861   6.927   2.694 -0.1592  0.2590 -0.3052
    1W        W32636   5.645  27.656   7.509 -0.0447  0.3416 -0.2863
    1W        W32637   1.178  28.852   1.478  0.1335  0.0440  0.0022
    1W        W32638  13.546  18.093   8.216  0.0339 -0.0708  0.0489
    1W        W32639  18.013  24.738   6.682  0.0630  0.2529  0.0258
    1W        W32640  15.891  14.034   7.397  0.3670 -0.1309  0.1490
    1W        W32641   3.738  25.999   7.777  0.0771  0.2497 -0.2774
    1W        W32642   6.864   7.255   8.931  0.1074  0.2296  0.2970
    1W        W32643  10.830   9.496   8.590 -0.1504 -0.2270 -0.1791
    1W        W32644  28.530   4.061   7.892  0.0691  0.0286  0.1214
    1W        W32645   5.462  24.406   2.053  0.1446  0.4056 -0.0950
    1W        W32646  10.053   4.915   0.342 -0.1374 -0.0033  0.0027
    1W        W32647  25.661   6.806   0.112 -0.1462 -0.1363  0.3210
    1W        W32648  21.374  12.898   0.888 -0.0785 -0.0005  0.1159
    1W        W32649   8.164  17.114   0.815  0.2346  0.0250  0.1528
    1W        W32650   9.877  24.760   8.801 -0.2569 -0.1980 -0.2928
    1W        W32651  26.143  10.920   8.794  0.0037  0.0712  0.1491
    1W        W32652  26.856  12.516   6.911 -0.2433  0.1536 -0.3566
    1W        W32653   4.462   9.615   7.570  0.2172  0.2590  0.1377
    1W        W32654   4.471  27.733   1.392 -0.0281  0.0560  0.3192
    1W        W32655   1.693  18.800   6.166  0.0377 -0.1171 -0.0821
    1W        W32656  11.543   1.493   9.093  0.1303 -0.0413  0.1108
    1W        W32657  23.054  29.265   0.343 -0.1679  0.2123  0.1933
    1W        W32658  28.542  16.386   2.282  0.4273 -0.2419  0.0453
    1W        W32659  14.196   9.525   8.934  0.2727 -0.0666  0.3261
    1W        W32660  10.138   5.500   7.113 -0.3009  0.0474  0.3161
    1W        W32661  14.242  27.292   7.933 -0.3563 -0.0556  0.3329
    1W        W32662  16.515  25.232   3.331  0.2165  0.2364 -0.0392
    1W        W32663   0.802  29.528   9.208  0.2359  0.1694  0.0442
    1W        W32664  11.595  11.077   6.761 -0.2103  0.0026 -0.0161
    1W        W32665  12.702  16.088   0.479 -0.0460 -0.2104 -0.0788
    1W        W32666  29.275  18.477   2.440 -0.0795 -0.2138 -0.2434
    1W        W32667  24.851  23.438   9.018 -0.1101 -0.1544  0.0406
    1W        W32668  14.287  15.265   0.433  0.1901 -0.3303  0.0019
    1W        W32669  29.613  12.804   0.137  0.1987  0.0895  0.1846
    1W        W32670  16.360   1.840   2.952 -0.2809 -0.0210  0.0256
    1W        W32671  13.714  22.909   0.443 -0.0067 -0.0539  0.3143
    1W        W32672  14.131  28.451   2.507  0.1874  0.0799  0.2167
    1W        W32673  11.933   1.026   2.472 -0.1050  0.6363  0.2675
    1W        W32674  18.053   6.868   6.812 -0.3017  0.0569  0.0550
    1W        W32675   3.561  17.622   6.053  0.0385 -0.1484  0.1551
    1W        W32676  22.382  21.824   7.944 -0.2197  0.2726 -0.0327
    1W        W32677   9.795   8.109   7.251 -0.3507 -0.2710 -0.1378
    1W        W32678  28.457  12.442   1.914 -0.3157 -0.2183  0.0672
    1W        W32679  27.664  23.314   7.157 -0.0023  0.0044  0.0974
    1W        W32680  26.601   8.892   7.686 -0.2377  0.0139  0.2046
    1W        W32681  23.639  27.318   6.845  0.0576 -0.0804 -0.3418
    1W        W32682  24.831  29.505   8.565  0.1992 -0.0014 -0.2431
    1W        W32683  28.894   8.600   1.136  0.0252  0.0575  0.0795
    1W        W32684  11.175  11.242   2.752  0.1613  0.1357 -0.2227
    1W        W32685   2.526  19.229   0.722  0.1718  0.1307  0.0830
    1W        W32686   6.171  21.306   8.937  0.1321 -0.3035  0.4482
    1W        W32687  28.733  18.691   7.123  0.2130  0.0196  0.0793
    1W        W32688  16.512   0.777   0.912 -0.0624 -0.2985 -0.0034
    1W        W32689   1.636  11.414   7.482 -0.1950  0.0495  0.0725
    1W        W32690   0.884  15.131   1.564 -0.0803 -0.0274  0.1861
    1W        W32691  20.164  18.661   7.297  0.1303 -0.2069  0.0075
    1W        W32692  14.683   4.477   0.354  0.0777 -0.0020 -0.0855
    1W        W32693  15.684   3.021   8.698 -0.1812  0.1488 -0.0625
    1W        W32694  27.439   4.576   2.393 -0.1833  0.1096  0.3706
    1W        W32695  25.992  25.463   8.712  0.1452 -0.0042 -0.2239
    1W        W32696  23.349   4.905   1.031  0.1764 -0.4323 -0.1933
    1W        W32697  23.401   7.324   8.964 -0.1314  0.0335  0.1668
    1W        W32698  14.538   6.617   7.333 -0.0996  0.0486  0.0317
    1W        W32699  15.019  26.302   0.304 -0.1619  0.1816  0.1815
    1W        W32700  10.030  12.138   8.034 -0.0456 -0.1194 -0.3498
    1W        W32701  17.504  25.588   2.357  0.1015 -0.0776 -0.2834
    1W        W32702  10.832  21.509   8.235  0.0172 -0.0321 -0.0258
    1W        W32703   3.181   2.835   1.131  0.1260  0.3161 -0.1070
    1W        W32704  16.968   3.807   0.576 -0.0221 -0.2752  0.2447
    1W        W32705   9.231   8.192   7.817  0.2403  0.1324  0.2963
    1W        W32706   2.344   0.711   2.575 -0.1043  0.2834  0.0831
    1W        W32707   1.770   7.222   1.982 -0.0299 -0.0217 -0.2464
    1W        W32708   2.278  29.423   9.349 -0.0378  0.0950 -0.4570
    1W        W32709   7.772   8.676   8.691 -0.3574  0.1415 -0.1323
    1W        W32710  21.411  16.270   8.803 -0.3486 -0.0125  0.0775
    1W        W32711  23.339   4.811   8.195  0.0606  0.1080 -0.1881
    1W        W32712   8.013   7.784   6.681  0.2289  0.1470 -0.4684
    1W        W32713   0.558   1.479   6.829  0.2019  0.1454 -0.2423
    1W        W32714  16.386  16.231   1.418  0.0819 -0.1259 -0.1817
    1W        W32715  20.935   1.336   1.869 -0.0144 -0.1812  0.3296
    1W        W32716   0.621   7.787   1.604 -0.1005 -0.1390 -0.0554
    1W        W32717  18.800   2.403   8.748 -0.1474 -0.1207 -0.0635
    1W        W32718   6.251  15.617   0.728  0.1113 -0.1147  0.0514
    1W        W32719   7.909  28.112   8.903  0.1737 -0.1448 -0.2053
    1W        W32720   1.463   8.161   8.522  0.2322 -0.0415  0.1261
    1W        W32721  19.000  24.442   1.804  0.0524 -0.0326 -0.0678
    1W        W32722  18.872  10.679   8.310 -0.3137  0.0390  0.3667
    1W        W32723   6.294  11.604   0.078 -0.3594 -0.1607  0.0475
    1W        W32724  12.151  19.480   0.644  0.1416 -0.2455 -0.1512
    1W        W32725  15.388   5.683   8.137 -0.0396  0.4452 -0.1973
    1W        W32726  12.997  10.068   8.537  0.2766 -0.0295 -0.1734
    1W        W32727  10.165  13.640   1.887  0.2850 -0.0638  0.1346
    1W        W32728   2.417   3.822   0.896 -0.2845 -0.0053 -0.1374
    1W        W32729  25.116  28.316   0.403  0.1904  0.0780  0.0710
    1W        W32730  16.560   6.264   8.927 -0.0124 -0.2074  0.0556
    1W        W32731  11.902  11.527   1.897  0.2326 -0.0215 -0.2761
    1W        W32732  16.853   2.191   8.870  0.4088  0.0532  0.0800
    1W        W32733   8.023  21.645   7.791 -0.1097 -0.2085  0.1071
    1W        W32734   6.166  11.321   0.674 -0.1830 -0.0046  0.0757
    1W        W32735   5.817  17.580   8.032  0.0327 -0.2848 -0.1346
    1W        W32736  10.229  27.697   9.322 -0.1787 -0.0372  0.2831
    1W        W32737  19.101  26.029   2.464  0.0360 -0.1122 -0.1312
    1W        W32738   6.671  24.517   9.323 -0.1414  0.1580 -0.0731
    1W        W32739  11.812   6.479   3.032  0.2957  0.1470  0.1111
    1W        W32740   0.156  16.772   6.802  0.0690 -0.2393 -0.0692
    1W        W32741  21.167  28.497   7.457  0.0720  0.0919  0.1129
    1W        W32742  28.575   1.268   3.216 -0.0301  0.0203 -0.3235
    1W        W32743  22.986   3.148   0.008  0.1122 -0.3971  0.4256
    1W        W32744  26.602   5.832   1.138  0.0656 -0.0079  0.1558
    1W        W32745  25.877  10.182   8.168 -0.0209  0.0587  0.3157
    1W        W32746  15.336  29.278   1.986 -0.1460 -0.1151  0.2335
    1W        W32747  26.756  23.049   2.595 -0.1884 -0.1345  0.3196
    1W        W32748  10.093   1.752   3.037 -0.1162 -0.0564 -0.0091
    1W        W32749   5.617  12.427   1.079 -0.5078  0.1231  0.3897
    1W        W32750  20.958   0.772   8.840 -0.0337 -0.1705  0.1897
    1W        W32751  15.429   6.261   0.463  0.2666 -0.2862 -0.1960
    1W        W32752  12.667  23.748   1.315 -0.3129 -0.0617  0.0954
    1W        W32753   5.765  12.548   6.989 -0.0020 -0.0652 -0.0690
    1W        W32754  26.275  15.243   7.537 -0.0361  0.2477 -0.1657
    1W        W32755  14.819  16.589   7.868  0.0272 -0.2154 -0.1541
    1W        W32756  27.468   8.854   0.097  0.0625  0.2720 -0.2339
    1W        W32757   1.485   2.192   9.218  0.0777 -0.3316  0.2235
    1W        W32758  23.261   9.807   5.807  0.1810 -0.1030  0.0196
    1W        W32759  25.014   3.545   7.253  0.1391  0.1326 -0.1089
    1W        W32760  11.265  23.097   8.136 -0.3003  0.0788  0.3133
    1W        W32761  17.592  12.548   9.433 -0.0994  0.1817 -0.0277
    1W        W32762  28.141  28.584   9.454  0.0332  0.0094  0.0696
    1W        W32763  20.844   7.498   7.706  0.0272  0.0959  0.3503
    1W        W32764  26.520   9.026   2.353  0.1983  0.2778 -0.1367
    1W        W32765  15.184  13.759   0.691 -0.0838 -0.2880  0.1123
    1W        W32766   7.280  20.397   8.072  0.0338  0.1257  0.1511
    1W        W32767  10.817   1.279   2.111 -0.3728 -0.1780 -0.1474
    1W        W32768  23.720  20.393   8.632 -0.0959 -0.2666 -0.1389
    1W        W32769  10.716   3.791   1.045  0.3315 -0.2934  0.1166
    1W        W32770   5.850  27.040   7.722 -0.1954 -0.1239  0.1618
    1W        W32771  27.105  24.099   1.369  0.1896 -0.0326  0.0923
    1W        W32772  25.867  10.610   2.013 -0.0997  0.1000 -0.3418
    1W        W32773  18.454   7.160   0.404  0.0722  0.0160 -0.0336
    1W        W32774   5.121  20.662   6.555 -0.1929 -0.3422 -0.0607
    1W        W32775   7.760   3.150   7.160  0.1366  0.2141 -0.3400
    1W        W32776  20.025   6.102   7.970 -0.0464  0.0083 -0.2484
    1W        W32777   1.572   0.727   6.523 -0.2253  0.0961 -0.0124
    1W        W32778   9.927   0.423   8.593 -0.2555 -0.2985  0.1023
    1W        W32779  26.378  29.242   0.670 -0.1292  0.0105 -0.6476
    1W        W32780  22.879  24.966   2.088 -0.2376  0.1243 -0.1197
    1W        W32781  22.329  27.349   6.819  0.2453  0.0460  0.1751
    1W        W32782   1.701   0.080   2.261 -0.2888 -0.0603  0.2081
    1W        W32783   3.819  12.700   2.722 -0.0293 -0.0347 -0.2827
    1W        W32784   9.151  19.608   0.722 -0.0453 -0.0266 -0.3778
    1W        W32785  27.698   5.998   2.323 -0.2273 -0.1964 -0.0818
    1W        W32786  18.348  16.106   8.650 -0.1434 -0.1897  0.2885
    1W        W32787   6.736   0.957   0.719 -0.0514  0.2723 -0.1265
    1W        W32788   8.895   0.034   3.949 -0.1033 -0.0807 -0.0376
    1W        W32789  27.693   4.451   1.608  0.2608 -0.1171 -0.3829
    1W        W32790   8.907  14.791   2.544  0.0541 -0.0440 -0.3256
    1W        W32791  28.841   6.694   9.262 -0.0621 -0.1061 -0.0136
    1W        W32792  23.721   4.552   6.589 -0.0126  0.0799  0.0213
    1W        W32793   6.916   4.028   2.019  0.0834  0.1329  0.0788
    1W        W32794   2.602  27.542   2.016 -0.3073  0.1105 -0.1213
    1W        W32795   9.056  23.574   1.004  0.1075 -0.1237  0.4451
    1W        W32796  25.457  21.615   3.531 -0.4115  0.0715 -0.1260
    1W        W32797  28.546  18.791   8.525 -0.0453  0.1274  0.1094
    1W        W32798   1.460  28.588   8.280  0.1507 -0.1648  0.3517
    1W        W32799  24.546  15.017   8.315  0.1940  0.0938  0.0862
    1W        W32800  20.402   3.423   2.404  0.0344 -0.1618  0.1218
    1W        W32801   3.116  26.089   8.372 -0.2224 -0.0293 -0.2415
    1W        W32802   4.777  15.635   7.105 -0.2065 -0.0881  0.0985
    1W        W32803  14.989   5.019   1.706 -0.1615 -0.0876  0.1268
    1W        W32804  20.472  29.540   2.759  0.3168 -0.0046  0.0620
    1W        W32805  29.123  17.394   8.254 -0.2680  0.0514 -0.0389
    1W        W32806  19.470   7.784   7.996 -0.0656  0.0440 -0.1237
    1W        W32807   2.313  28.970   7.314 -0.2095  0.1323 -0.1919
    1W        W32808   1.911   0.687   2.160 -0.0772  0.2621  0.2601
    1W        W32809  16.443  15.038   0.656  0.0898 -0.1018 -0.1264
    1W        W32810   1.735   6.880   1.562 -0.0600  0.0264 -0.2999
    1W        W32811   5.183   8.945   0.579  0.3668  0.0011  0.0807
    1W        W32812  24.173  24.748   8.096 -0.1344 -0.1437  0.0227
    1W        W32813  20.285  16.786   1.283 -0.3063 -0.3217  0.1270
    1W        W32814  26.763  10.526   8.298 -0.0587 -0.0079 -0.2901
    1W        W32815   8.251  21.438   9.018 -0.0971 -0.2810 -0.1127
    1W        W32816  16.820  13.258   0.925  0.0218 -0.0310 -0.2989
    1W        W32817  22.158   2.748   8.422 -0.1340 -0.0170  0.0215
    1W        W32818  26.345  17.097   8.535  0.2638 -0.3056  0.1756
    1W        W32819  27.712  26.934   0.482 -0.0133 -0.1059  0.1549
    1W        W32820  13.042  19.068   1.041  0.2026  0.0224 -0.1204
    1W        W32821  24.386   9.291   8.308  0.0150  0.1477 -0.0537
    1W        W32822  23.921  25.059   7.285  0.0622 -0.4533  0.0660
    1W        W32823   1.958  22.567   9.065  0.1608  0.0510 -0.1970
    1W        W32824   2.529  29.135   8.341  0.2049 -0.0549 -0.2027
    1W        W32825  26.590  10.867   7.897  0.0156  0.1639 -0.0419
    1W        W32826   6.178  29.735   7.942 -0.0302  0.1448  0.1163
    1W        W32827   0.866   3.130   8.624 -0.2702  0.1508 -0.1625
    1W        W32828  13.009   3.998   9.423 -0.0219  0.2059  0.2745
    1W        W32829  20.222  14.343   8.459 -0.0309 -0.0046 -0.0669
    1W        W32830  20.942  13.049   6.825  0.0439 -0.0480  0.2717
    1W        W32831  20.159   4.415   0.570  0.0752  0.0596 -0.1786
    1W        W32832  19.497  27.857   7.402 -0.1276  0.1704 -0.2075
    1W        W32833  24.532   9.506   8.832 -0.1274 -0.1531  0.1423
    1W        W32834   0.509   4.068   1.482 -0.0444  0.2816 -0.0285
    1W        W32835   6.026   0.013   8.815  0.2171 -0.0769 -0.1171
    1W        W32836  11.969  26.012   6.108 -0.0231  0.0403  0.0908
    1W        W32837  24.549   5.502   8.788 -0.3098  0.0829 -0.0864
    1W        W32838  21.052   0.904   0.352 -0.0133  0.3122  0.0512
    1W        W32839  18.469  25.808   8.018  0.2273  0.0525 -0.1364
    1W        W32840  18.641   2.597   0.575  0.3774 -0.0475 -0.0647
    1W        W32841   0.430  16.385   6.559 -0.0324 -0.2610  0.1028
    1W        W32842  13.031  22.382   9.152 -0.0505 -0.3568  0.0774
    1W        W32843  23.165   2.592   1.817 -0.0442  0.0701 -0.4232
    1W        W32844  11.267   7.468   8.498  0.1581 -0.3531 -0.3640
    1W        W32845   6.677  11.487   6.880  0.3259  0.0946 -0.2618
    1W        W32846  17.494  16.317   7.591  0.1114  0.1064 -0.1729
    1W        W32847  21.775  29.674   0.875 -0.0502  0.0106  0.3535
    1W        W32848  14.002  11.474   0.614 -0.5288  0.0834  0.2978
    1W        W32849  26.126  27.988   0.090  0.2322  0.0755  0.0280
    1W        W32850  26.623   7.623   5.563 -0.4212 -0.1348  0.1491
    1W        W32851   7.151  28.263   7.988  0.2602  0.0317 -0.1358
    1W        W32852  11.531  13.337   0.265  0.1194 -0.0524  0.1275
    1W        W32853   5.847  18.111   1.781  0.0844  0.0527 -0.5411
    1W        W32854   6.022  29.374   8.260  0.2578 -0.1625  0.0938
    1W        W32855  28.353  23.824   2.860 -0.0704 -0.0337  0.0240
    1W        W32856  16.870  10.302   8.336 -0.1277  0.2358  0.1682
    1W        W32857  23.039  16.805   7.782  0.2271  0.2459 -0.0001
    1W        W32858   8.259   1.194   8.732 -0.2089  0.2914 -0.1705
    1W        W32859  13.288  27.833   1.258 -0.2954  0.0470 -0.0899
    1W        W32860   7.090   1.563   8.375  0.0371  0.0355  0.0292
    1W        W32861  15.265  21.622   8.758 -0.1457  0.2699  0.0414
    1W        W32862  22.558   7.838   0.013 -0.3085 -0.0230  0.2223
    1W        W32863   4.295  25.385   0.916 -0.3614  0.0109  0.2853
    1W        W32864  18.225  25.714   6.847 -0.1635  0.1582  0.1729
    1W        W32865  20.250   3.152   0.615 -0.2827 -0.2635 -0.2374
    1W        W32866   4.592   2.705   2.915 -0.4109 -0.0016  0.0294
    1W        W32867  21.558  29.213   8.346  0.0011 -0.2111 -0.1690
    1W        W32868   3.429  11.032   7.737  0.1710 -0.0748  0.1462
    1W        W32869  12.002  13.713   0.151 -0.1292 -0.1827 -0.2928
    1W        W32870  29.766   6.680   1.489 -0.0554 -0.2155 -0.0836
    1W        W32871  27.978   8.830   0.946 -0.1730  0.0732 -0.0036
    1W        W32872  23.247  25.637   6.566  0.1288 -0.1102 -0.3198
    1W        W32873  24.970  10.024   9.438 -0.0509  0.1546 -0.0437
    1W        W32874   9.905   4.158   1.086 -0.2657 -0.1562  0.1245
    1W        W32875   7.985   5.089   7.310  0.2576 -0.3773  0.0612
    1W        W32876  17.498  10.963   1.585 -0.2598  0.1457 -0.0761
    1W        W32877  14.206  16.065   8.928  0.0121 -0.0863 -0.0928
    1W        W32878   4.814  27.539   2.246  0.3101  0.2629  0.1869
    1W        W32879  23.018  11.846   7.430  0.1016 -0.1139 -0.1952
    1W        W32880  14.945  21.399   7.548 -0.1143  0.0641 -0.4307
    1W        W32881   5.009  15.115   1.895 -0.0754 -0.1145  0.0090
    1W        W32882   9.056   1.277   0.794 -0.2194  0.2167 -0.0288
    1W        W32883  20.564   9.363   1.111 -0.0706  0.0966 -0.1372
    1W        W32884   3.289  22.842   1.739  0.0645  0.1686  0.2220
    1W        W32885  26.624  13.546   6.324  0.0390 -0.0442 -0.0650
    1W        W32886  10.345   8.145   8.418  0.2393  0.2039  0.1719
    1W        W32887  16.845  27.059   8.837 -0.1674  0.1407 -0.1305
    1W        W32888   9.874  14.798   1.108  0.1986 -0.0319  0.0204
    1W        W32889  20.598  28.526   1.856  0.2518  0.1385  0.0450
    1W        W32890   0.082   6.012   1.898  0.1189 -0.1355  0.0295
    1W        W32891  21.340  29.320   2.490  0.2036 -0.0921  0.1165
    1W        W32892  20.399  11.685   6.756  0.2870 -0.1306 -0.0912
    1W        W32893  29.151   4.632   6.222 -0.1023  0.2891 -0.3531
    1W        W32894  10.471  27.328   2.221 -0.1075  0.0179  0.0452
    1W        W32895  19.878  26.522   8.097  0.2431 -0.0187 -0.1961
    1W        W32896   3.982  10.627   1.891  0.5040  0.0387 -0.1077
    1W        W32897   8.317   5.243   7.664  0.0433  0.2674 -0.1161
    1W        W32898  20.373  29.145   0.333 -0.2318  0.2457  0.2148
    1W        W32899  27.010   7.832   2.595 -0.0522  0.0512  0.0956
    1W        W32900  29.561   6.840   9.214 -0.2083 -0.0760 -0.0061
    1W        W32901  19.245  16.807   9.433 -0.2788  0.1903  0.1610
    1W        W32902  28.338  10.022   8.381 -0.1609  0.2032 -0.1269
    1W        W32903  11.669  12.832   1.977  0.2404 -0.3222  0.2112
    1W        W32904  25.299  12.370   2.808  0.2803  0.2146 -0.4712
    1W        W32905  19.593  15.175   1.023 -0.1813 -0.1317 -0.3078
    1W        W32906   9.644  18.110   6.736  0.0434 -0.0954  0.0379
    1W        W32907   0.144  24.017   7.265  0.1724 -0.1734 -0.1566
    1W        W32908   5.070  21.417   0.274  0.3459  0.1743 -0.1229
    1W        W32909   4.611  29.117   7.897  0.0286 -0.0835  0.0378
    1W        W32910  11.566  11.882   1.872 -0.1351  0.0009 -0.1544
    1W        W32911  17.589  11.524   7.126 -0.0579  0.1788  0.0100
    1W        W32912  22.632  21.179   9.276  0.1142  0.0076 -0.0283
    1W        W32913   2.577  22.916   0.327 -0.1480 -0.2170 -0.2077
    1W        W32914  28.326  15.107   7.442  0.1936  0.0674 -0.3095
    1W        W32915   9.419   8.174   9.434  0.0925 -0.1812 -0.0793
    1W        W32916  19.320  14.247   7.771 -0.1615  0.0865 -0.1082
    1W        W32917  28.131   3.846   0.173  0.0188  0.0582  0.2021
    1W        W32918   2.403  11.477   7.404 -0.0525  0.0174 -0.3801
    1W        W32919   9.951   0.189   1.870  0.0445 -0.0884 -0.1918
    1W        W32920   0.622   2.258   7.068  0.1351  0.3055 -0.2219
    1W        W32921   6.841   3.800   0.708 -0.2769 -0.1396 -0.1013
    1W        W32922  27.722   8.246   8.995  0.0821  0.0472  0.3063
    1W        W32923  19.416  23.578   3.464 -0.0007  0.2461 -0.0690
    1W        W32924  28.076   2.594   7.302 -0.1601  0.1146 -0.2146
    1W        W32925  21.901   4.266   1.030 -0.0590 -0.1569 -0.0677
    1W        W32926  25.070  16.357   0.132 -0.1508  0.0062  0.0455
    1W        W32927  26.613   0.344   1.075 -0.3271  0.2133  0.2307
    1W        W32928  12.259  18.128   1.626 -0.1035 -0.1087 -0.4199
    1W        W32929  26.423  28.811   8.805 -0.2249  0.2756  0.2052
    1W        W32930  21.262   4.470   0.268  0.1999 -0.0300 -0.0329
    1W        W32931  12.108  12.166   2.526  0.0712  0.1647 -0.3467
    1W        W32932  24.007  25.867   2.615  0.4632  0.0944  0.0460
    1W        W32933   1.466  29.475   1.381  0.0905 -0.4160 -0.2192
    1W        W32934  23.481  14.203   8.321 -0.1582 -0.1069  0.0388
    1W        W32935  17.763   8.105   0.829 -0.1592  0.2782 -0.0547
    1W        W32936  16.370   9.290   8.198 -0.0415  0.3533 -0.3276
    1W        W32937   3.905  29.678   3.004 -0.1772 -0.1146 -0.1165
    1W        W32938   9.914  21.397   8.929 -0.0147 -0.0936  0.1489
    1W        W32939   5.516   4.214   0.301 -0.1125  0.1499 -0.2205
    1W        W32940   5.838   0.146   7.531 -0.1699 -0.3672  0.1529
    1W        W32941  16.499  28.826   0.909 -0.1138 -0.0393  0.2288
    1W        W32942   2.477  11.568   2.350 -0.1050 -0.1308  0.0234
    1W        W32943  16.533   4.612   0.569 -0.0119  0.1123  0.2974
    1W        W32944  18.436  23.061   2.726  0.1339  0.1125 -0.0781
    1W        W32945  24.517   5.724   2.865 -0.0958  0.1996  0.0756
    1W        W32946  19.279   5.691   8.885  0.2216  0.1993 -0.2710
    1W        W32947  26.104  29.397   1.019  0.2239 -0.1971 -0.2623
    1W        W32948   3.023   5.806   0.253  0.3072 -0.2293 -0.1002
    1W        W32949  16.971   0.998   1.289  0.2412 -0.0231  0.0561
    1W        W32950  21.296  10.447   6.965 -0.0191 -0.3289  0.0739
    1W        W32951   6.625   2.043   2.359 -0.1160 -0.1027  0.0317
    1W        W32952   3.916  10.336   8.748  0.2260  0.0868 -0.2827
    1W        W32953   6.408  16.319   8.944  0.2446 -0.3767  0.0061
    1W        W32954  26.898  22.249   2.971 -0.1475 -0.0589 -0.1579
    1W        W32955   8.649   6.083   6.839 -0.3396  0.0043 -0.2828
    1W        W32956  11.655   6.489   7.359  0.0171 -0.1520 -0.0509
    1W        W32957  23.166  12.201   7.770  0.0712 -0.1647  0.0964
    1W        W32958  24.017   9.879   7.708  0.0534  0.4218  0.1422
    1W        W32959  10.341   6.947   0.979 -0.0185  0.0230 -0.0248
    1W        W32960  13.334   9.729   0.344  0.2710 -0.1879  0.0579
    1W        W32961  11.023  27.111   7.675 -0.1098  0.1095 -0.0686
    1W        W32962  27.779  19.731   2.468 -0.1671 -0.0739  0.0692
    1W        W32963   7.423  12.579   0.609  0.0762 -0.0846 -0.2345
    1W        W32964  25.690  26.560   6.243  0.1192 -0.1500  0.1790
    1W        W32965  24.788   5.707   1.136  0.2696 -0.0606 -0.1638
    1W        W32966   2.042  12.743   2.214 -0.4727  0.1464  0.1706
    1W        W32967   1.707   6.102   9.451  0.0866  0.2670 -0.0322
    1W        W32968  21.005   1.466   0.008  0.2271 -0.4092 -0.1307
    1W        W32969  11.445   1.927   0.520 -0.2304 -0.0107  0.0042
    1W        W32970   9.704   5.083   3.706  0.2693 -0.2762  0.0384
    1W        W32971   8.182  10.775   2.418 -0.4532 -0.0120 -0.1603
    1W        W32972  15.327  18.463   0.281  0.0142 -0.0793  0.1859
    1W        W32973  24.593  28.913   7.376  0.0688  0.0519  0.3443
    1W        W32974   2.304   7.507   1.490 -0.0187  0.1052 -0.0893
    1W        W32975  24.464  19.742   8.595 -0.0975 -0.1043 -0.2726
    1W        W32976  22.772  14.818   6.921  0.2718  0.0481  0.1055
    1W        W32977  25.125   1.623   7.348 -0.3511 -0.4100  0.3933
    1W        W32978   9.417   5.239   1.843 -0.0633  0.1321  0.6037
    1W        W32979  12.195   8.718   8.164  0.1603 -0.0827 -0.3094
    1W        W32980  19.630  12.138   7.489 -0.0251 -0.1948 -0.3708
    1W        W32981   3.148  23.336   1.546  0.3479  0.2245  0.0264
    1W        W32982  26.838  20.612   0.592 -0.0088  0.2000 -0.1244
    1W        W32983   1.135  21.794   2.484  0.0581  0.1143 -0.4139
    1W        W32984  10.071  25.515   8.373  0.2137  0.0861 -0.2109
    1W        W32985  24.886  14.009   9.429 -0.2606 -0.1710 -0.3514
    1W        W32986  14.007  19.933   7.663  0.0959  0.2382 -0.0786
    1W        W32987  13.017   7.577   1.173  0.1636  0.0132  0.0007
    1W        W32988  13.336   8.998   1.215  0.4682  0.1631 -0.1337
    1W        W32989   8.252   8.781   8.835 -0.1027  0.2310  0.2575
    1W        W32990  28.984   9.142   6.974 -0.0310  0.0551 -0.1481
    1W        W32991  19.550  17.544   6.602 -0.0173 -0.0665  0.2589
    1W        W32992   2.479  17.199   0.280 -0.1755 -0.0061 -0.3119
    1W        W32993  15.931  15.519   8.502 -0.0397  0.4184  0.0382
    1W        W32994   0.598   7.274   9.079 -0.0913 -0.0144  0.0689
    1W        W32995  25.474  21.525   1.982  0.1909 -0.0465  0.0037
    1W        W32996  11.939  14.162   7.050 -0.0717  0.1824 -0.0060
    1W        W32997  14.439  16.895   8.475 -0.0061  0.0136 -0.1125
    1W        W32998   2.424   5.602   7.616  0.1352 -0.1423  0.2024
    1W        W32999   4.361   7.123   0.370  0.2891 -0.1417 -0.1388
    1W        W33000   1.658  28.944   1.346  0.2519 -0.3556 -0.1319
    1W        W33001  11.486   9.632   1.780  0.0977  0.0399  0.2631
    1W        W33002   3.900   9.774   9.209 -0.3090  0.1382  0.0015
    1W        W33003   1.053  20.252   7.404 -0.1199  0.1180  0.1186
    1W        W33004   4.636   0.761   1.124 -0.0727  0.0142  0.3081
    1W        W33005  14.374  19.370   2.249 -0.2131  0.0974 -0.1560
    1W        W33006  18.146  28.280   6.260 -0.0431  0.0760  0.2863
    1W        W33007   6.091  18.255   0.638 -0.0608  0.0897  0.0698
    1W        W33008   6.412  14.944   8.480 -0.2635 -0.1930  0.1158
    1W        W33009   6.132  14.688   8.104 -0.1254 -0.0503  0.1044
    1W        W33010  21.355   4.034   8.038 -0.0522 -0.3172  0.1468
    1W        W33011  13.636   2.475   8.994  0.2011  0.2759 -0.0489
    1W        W33012   4.556   1.002   0.313 -0.0027 -0.2228 -0.1129
    1W        W33013  27.055  25.668   0.487 -0.0465 -0.1204  0.1119
    1W        W33014  12.464  10.105   2.387  0.3990  0.3579  0.2560
    1W        W33015   2.501   2.757   0.219 -0.0906  0.1967  0.1154
    1W        W33016  15.563  22.777   7.370 -0.1840  0.0866 -0.0517
    1W        W33017   4.028   8.747   3.291 -0.0464  0.1993  0.1470
    1W        W33018   5.335   2.460   8.903 -0.3006 -0.0822  0.2389
    1W        W33019  28.109  24.113   0.481 -0.2399  0.1594  0.0922
    1W        W33020  13.696  21.337   0.134 -0.1334  0.0013 -0.1138
    1W        W33021  18.630  25.242   2.137 -0.1780 -0.1952  0.1148
    1W        W33022  13.693  27.026   7.248 -0.0299 -0.2960 -0.0705
    1W        W33023  27.753  28.436   2.371 -0.1543 -0.0129 -0.0647
    1W        W33024   3.357  20.521   0.470 -0.3337 -0.1612 -0.0067
    1W        W33025   8.313  10.224   9.258 -0.3102 -0.2717 -0.0418
    1W        W33026   7.855  10.199   1.906  0.0322  0.1283 -0.2744
    1W        W33027   8.015  14.005   7.166 -0.1940  0.0804 -0.1420
    1W        W33028  15.929   3.432   0.222 -0.1029  0.0196 -0.2162
    1W        W33029  25.100   8.812   6.100 -0.0026  0.2110 -0.0990
    1W        W33030  22.991   2.533   7.704 -0.2344 -0.0136 -0.1352
    1W        W33031  16.613  15.304   7.329 -0.1185 -0.1023 -0.0519
    1W        W33032   0.534   5.794   1.582 -0.0157 -0.1980 -0.1336
    1W        W33033  13.567   4.888   1.661 -0.3202 -0.0877 -0.2709
    1W        W33034  24.379  22.687   2.590 -0.2098  0.1197  0.0379
    1W        W33035   2.981   0.822   9.215 -0.1459  0.3156 -0.0776
    1W        W33036   3.035  28.123   2.632 -0.2260  0.2236  0.3302
    1W        W33037  28.276  23.774   7.116 -0.0620  0.2495 -0.1129
    1W        W33038   3.733   9.134   9.042  0.0262 -0.0697 -0.0885
    1W        W33039  14.563   7.126   6.879  0.0049  0.1737 -0.3889
    1W        W33040   4.360  25.910   9.312 -0.3569 -0.0360  0.1419
    1W        W33041   9.268  20.317   7.121  0.0435  0.1054  0.2791
    1W        W33042  24.248  15.596   1.295  0.1112  0.2191  0.1753
    1W        W33043  16.371  22.440   8.899  0.0343 -0.1625 -0.1533
    1W        W33044  21.725   8.085   9.018 -0.0499  0.3291  0.3592
    1W        W33045   1.179  21.922   1.432 -0.2710 -0.0962 -0.0468
    1W        W33046  11.613  12.597   1.574  0.0387 -0.0556 -0.0780
    1W        W33047  13.216  15.888   7.334  0.3122  0.0700 -0.3435
    1W        W33048  16.941   5.407   6.472  0.2315 -0.0142  0.2036
    1W        W33049   6.689  19.341   6.615  0.2585 -0.0540 -0.2166
    1W        W33050  18.495  20.490   0.464 -0.0978 -0.3416  0.0822
    1W        W33051   1.881  11.904   9.277  0.2327  0.1408 -0.0248
    1W        W33052   5.135   4.876   2.724  0.1582  0.1475 -0.0698
    1W        W33053  24.321  22.032   2.270 -0.0693  0.1335 -0.0829
    1W        W33054  22.336  28.456   9.035  0.1554  0.1613  0.0460
    1W        W33055   9.654   0.721   7.693  0.0942 -0.3188 -0.2563
    1W        W33056   0.979  26.243   6.432  0.3220 -0.0316  0.1979
    1W        W33057   8.415  16.583   2.541 -0.2375  0.1690 -0.2712
    1W        W33058  23.243   8.040   0.945  0.0599 -0.2887  0.0323
    1W        W33059  20.438  24.107   0.365  0.1433  0.1395 -0.0280
    1W        W33060  17.467   3.825   0.861 -0.0964 -0.1914  0.1336
    1W        W33061  17.369   1.503   8.955 -0.2227  0.0224  0.0800
    1W        W33062  27.791  14.517   1.662 -0.1019  0.0354 -0.2798
    1W        W33063   4.984  24.109   8.767 -0.0707 -0.0893 -0.2178
    1W        W33064  21.486  15.759   7.204  0.1897 -0.0036 -0.2734
    1W        W33065  13.200   3.290   0.446 -0.3276 -0.1263  0.0096
    1W        W33066  10.814   5.095   1.548  0.0684 -0.4064  0.0555
    1W        W33067  18.223   8.772   1.760  0.1992 -0.1530  0.1170
    1W        W33068   8.787  22.871   8.943 -0.1852 -0.0932 -0.3826
    1W        W33069   0.061  12.781   1.723  0.0004  0.0927 -0.1325
    1W        W33070  17.485   4.838   2.645 -0.1612 -0.3260  0.0600
    1W        W33071   4.541   4.360   1.655  0.1134  0.1758 -0.0924
    1W        W33072  29.266   8.515   2.809 -0.0394  0.1574  0.0791
    1W        W33073  15.720  18.925   9.265  0.1236  0.1990  0.2335
    1W        W33074  18.462  23.118   1.164  0.0844  0.0568  0.1966
    1W        W33075   2.529   1.445   0.700 -0.0591 -0.0509 -0.1341
    1W        W33076  10.780   5.156   2.224 -0.0303 -0.0069 -0.0074
    1W        W33077  23.272  21.511   8.622  0.3009 -0.0879 -0.0370
    1W        W33078   2.443  18.998   6.652  0.0836  0.1036 -0.0289
    1W        W33079   9.281  24.934   1.962  0.2178  0.0099  0.0779
    1W        W33080  14.508  21.771   8.341 -0.2303  0.0576 -0.2689
    1W        W33081  14.898   1.298   8.833  0.3422  0.0253 -0.0003
    1W        W33082   0.521   2.664   7.373  0.2249 -0.0399  0.1006
    1W        W33083  18.641   6.423   8.000  0.3121  0.3425 -0.1411
    1W        W33084  17.764  29.669   7.746 -0.2232  0.1808 -0.0326
    1W        W33085  10.266  22.553   8.178  0.4093 -0.1385  0.0481
    1W        W33086   9.689  22.507   9.437  0.0381 -0.0441 -0.0629
    1W        W33087  27.195  12.161   0.839  0.1574 -0.0157 -0.1180
    1W        W33088  28.028  29.456   8.818 -0.0236  0.2099  0.3056
    1W        W33089  10.655  22.213   6.664 -0.1393  0.0943  0.0010
    1W        W33090  14.308  11.814   0.952 -0.1779 -0.0333  0.2346
    1W        W33091   6.030  13.250   8.598  0.0772  0.2340  0.1789
    1W        W33092  13.180  23.745   6.659  0.1371  0.2846 -0.0619
    1W        W33093  23.011  12.626   8.029  0.2182 -0.2144  0.0935
    1W        W33094  11.154  16.786   7.218 -0.1529  0.0174 -0.3208
    1W        W33095  28.816  11.360   6.399 -0.0379  0.1837 -0.2073
    1W        W33096   8.612  28.523   2.119 -0.0982  0.1049  0.0459
    1W        W33097   8.692   8.030   8.527  0.1593  0.4753 -0.0337
    1W        W33098   8.272  26.957   0.808  0.0528 -0.2312  0.2045
    1W        W33099   5.223  26.055   1.400 -0.4286  0.1835 -0.2213
    1W        W33100   9.187  25.676   6.688  0.3445 -0.2343  0.0189
    1W        W33101  10.495  27.303   7.817 -0.2022 -0.1696  0.1492
    1W        W33102  28.122  15.481   3.869 -0.1892  0.2034 -0.1117
    1W        W33103  21.735  10.910   0.364  0.2169  0.1947  0.3919
    1W        W33104   3.983   2.378   8.930  0.1852 -0.0559 -0.4062
    1W        W33105  14.750  15.055   0.520 -0.1150 -0.2231  0.0526
    1W        W33106   6.780  22.951   8.981  0.0716 -0.2483  0.1337
    1W        W33107   5.823  12.921   0.522 -0.0665 -0.0330 -0.1722
    1W        W33108  11.784   7.125   2.872 -0.1657 -0.0377 -0.3766
    1W        W33109   4.145   2.016   2.449  0.0016 -0.2845  0.1925
    1W        W33110  28.476   5.214   2.330  0.1464  0.0546 -0.1374
    1W        W33111   0.885   6.243   7.342 -0.2659  0.1848  0.1634
    1W        W33112  23.330  11.857   0.869 -0.1174  0.0277  0.0396
    1W        W33113   8.560   4.402   8.367 -0.0489  0.2653 -0.0483
    1W        W33114  22.443  11.020   8.811  0.2583 -0.2957  0.2302
    1W        W33115   3.663  27.142   6.928 -0.0735 -0.1040 -0.0258
    1W        W33116  25.822   5.311   8.966  0.0762  0.4230 -0.4176
    1W        W33117   3.459  20.915   1.459 -0.1507  0.2728 -0.1260
    1W        W33118  23.599   8.958   9.152  0.1311 -0.1079  0.0839
    1W        W33119  18.762   2.120   3.236 -0.0979 -0.1221  0.1134
    1W        W33120  21.558  19.292   1.450  0.3088  0.0291 -0.1323
    1W        W33121   3.403   1.197   3.608 -0.1474 -0.1981  0.0735
    1W        W33122  13.212  25.682   8.566 -0.1025  0.1161  0.1810
    1W        W33123  24.398   9.582   7.882  0.0075  0.0952  0.0502
    1W        W33124  11.811   8.765   2.059  0.0934  0.2675  0.1743
    1W        W33125  26.185  28.353   7.890  0.1712 -0.1826  0.2915
    1W        W33126  14.182  27.938   9.135 -0.1959 -0.1637 -0.0950
    1W        W33127  12.666  25.355   0.626  0.3113 -0.0813  0.1452
    1W        W33128   9.368  10.340   8.367 -0.1585 -0.1924 -0.0525
    1W        W33129  14.444  10.790   8.136  0.4722  0.1065 -0.1095
    1W        W33130  26.152   5.462   2.099 -0.1874  0.2871 -0.1934
    1W        W33131  21.251   3.428   6.329  0.0981  0.2464  0.1683
    1W        W33132   3.213  17.889   9.070  0.0690  0.2086  0.1566
    1W        W33133  24.436  13.787   6.459  0.5340  0.1560 -0.1615
    1W        W33134  23.824  20.500   7.301 -0.0634  0.1610  0.1431
    1W        W33135   8.984   4.949   7.283 -0.0658 -0.0736 -0.4445
    1W        W33136  11.344   9.255   8.810  0.0086  0.3671 -0.3468
    1W        W33137  23.478  19.770   2.096 -0.0947  0.0797 -0.0554
    1W        W33138  16.937  17.216   1.751  0.0289  0.0578  0.2203
    1W        W33139  24.693   3.728   3.745  0.0089 -0.0452 -0.2812
    1W        W33140  19.392  24.057   9.368  0.0536  0.0190 -0.0806
    1W        W33141   3.477  27.053   8.420 -0.3227  0.0412 -0.5640
    1W        W33142  13.881   6.618   8.544  0.1816  0.2013  0.1311
    1W        W33143   9.280  16.416   0.518  0.0860 -0.1658  0.0876
    1W        W33144  16.424  15.096   8.361 -0.1340 -0.0793  0.2087
    1W        W33145   2.847   5.711   3.264  0.3025  0.1103  0.0086
    1W        W33146   2.619   1.622   0.211 -0.3690  0.0504 -0.2473
    1W        W33147  21.020  24.100   0.101  0.2437  0.3908 -0.2834
    1W        W33148  15.856  20.264   8.288 -0.2370 -0.0520 -0.4754
    1W        W33149  24.792   1.554   2.169 -0.0825 -0.2397 -0.1232
    1W        W33150  23.716  11.059   8.208  0.1275  0.1691  0.2328
    1W        W33151  10.168  24.671   2.645  0.0319  0.2609 -0.0172
    1W        W33152  11.177  14.417   7.606  0.3381  0.0790 -0.4230
    1W        W33153   0.739   1.389   7.313 -0.1403 -0.3435  0.2410
    1W        W33154   5.653  11.920   0.919  0.1878  0.1492 -0.0437
    1W        W33155  15.600   6.790   2.173  0.2515  0.0099  0.1169
    1W        W33156  20.476  22.344   3.457 -0.0325 -0.1000 -0.0453
    1W        W33157  13.294  27.373   1.537 -0.1703 -0.1594 -0.1012
    1W        W33158  11.138  16.000   0.774  0.0127 -0.0839  0.0381
    1W        W33159  10.922  16.170   7.908  0.1353 -0.2111  0.1285
    1W        W33160  14.728  14.034   0.558  0.0190 -0.0690  0.0384
    1W        W33161  12.849   7.456   2.775 -0.0714 -0.0938  0.0121
    1W        W33162  19.684  15.162   6.795  0.0998  0.0969 -0.1002
    1W        W33163  27.068  11.858   0.268 -0.2424  0.0967 -0.0084
    1W        W33164  13.872   0.214   3.038 -0.0147  0.0199 -0.0881
    1W        W33165   5.121  27.804   7.514 -0.0976  0.1605  0.1119
    1W        W33166   7.567   0.559   0.659 -0.2604  0.0547 -0.1437
    1W        W33167   6.397   4.872   7.005  0.2469 -0.0364 -0.0695
    1W        W33168   1.244   6.459   7.011  0.1031  0.1141 -0.0383
    1W        W33169  24.425   8.222   2.803 -0.0401 -0.0440 -0.0628
    1W        W33170  20.388   1.188   0.671  0.2317 -0.2236  0.2727
    1W        W33171   3.567  27.612   6.828  0.0773 -0.0301 -0.0434
    1W        W33172   6.032   2.671   9.429  0.0838 -0.2284  0.1314
    1W        W33173  13.483  27.288   7.881 -0.1223  0.0290 -0.0242
    1W        W33174  29.698  29.565   8.222 -0.0623 -0.2486  0.3420
    1W        W33175  14.453   0.148   2.374  0.2440  0.0852 -0.0770
    1W        W33176  11.646  28.974   1.750 -0.0262 -0.0753 -0.0978
    1W        W33177  22.816  17.593   8.094  0.0176  0.2352 -0.0532
    1W        W33178  18.149  16.716   1.689 -0.3612  0.2328 -0.1103
    1W        W33179  11.560  28.835   1.074  0.0251 -0.0766  0.1480
    1W        W33180  10.825  24.298   7.647 -0.2225 -0.1300  0.1515
    1W        W33181  14.756  13.464   8.562  0.0307  0.1781  0.0889
    1W        W33182  24.880   9.752   2.328  0.2581  0.1566 -0.0687
    1W        W33183   0.415  19.707   1.738  0.1128 -0.0319 -0.0453
    1W        W33184   9.782   4.143   2.460 -0.1883 -0.0063  0.2757
    1W        W33185   5.961   6.229   0.729 -0.3871 -0.5227 -0.0726
    1W        W33186   5.712  21.915   1.006 -0.0246 -0.1003 -0.1065
    1W        W33187  15.339   4.736   6.890 -0.1349 -0.1120 -0.1362
    1W        W33188  24.642  19.715   0.326  0.0167  0.3907 -0.1604
    1W        W33189   2.039  11.711   7.594  0.1018  0.1337 -0.0752
    1W        W33190  25.805   6.284   6.123  0.0147  0.0240  0.1840
    1W        W33191  28.336   6.451   9.207  0.2744  0.2860  0.0531
    1W        W33192  14.860  25.487   2.926  0.0470  0.2682 -0.1057
    1W        W33193  20.614   3.451   0.124  0.2089  0.2405  0.0680
    1W        W33194  11.670   6.673   8.437 -0.2139 -0.1017  0.1206
    1W        W33195  23.733   9.126   2.450 -0.0215  0.0116  0.1335
    1W        W33196  23.043   7.688   1.775  0.1361 -0.0230  0.1921
    1W        W33197  21.685  27.346   7.015  0.3783 -0.1127  0.2545
    1W        W33198   3.302   2.369   2.651 -0.2498  0.2036  0.0708
    1W        W33199  11.631   0.875   1.996  0.0670  0.2610  0.1357
    1W        W33200  14.340   7.592   1.257  0.2963  0.3139  0.1577
    1W        W33201   8.365  16.698   8.868 -0.1307 -0.1243  0.1616
    1W        W33202  29.550  23.383   0.435  0.0627  0.3616  0.2115
    1W        W33203  15.757   1.562   6.740  0.0106  0.0170  0.1664
    1W        W33204   2.679  28.883   1.737  0.0891  0.2801  0.0422
    1W        W33205   0.197  17.042   8.443 -0.3080 -0.2829  0.0343
    1W        W33206   0.770   8.374   7.989  0.1351  0.0714  0.0404
    1W        W33207  13.523  11.757   1.493  0.1418 -0.0722  0.0849
    1W        W33208  17.902  28.442   1.308  0.0319  0.1115  0.0084
    1W        W33209   8.752  10.717   0.489  0.0011 -0.2109 -0.0074
    1W        W33210  23.876  29.274   9.233 -0.2045  0.1186  0.1758
    1W        W33211  20.095  11.220   9.106 -0.0863  0.0446  0.1968
    1W        W33212   6.988   5.439   3.583  0.0440 -0.1599  0.2784
    1W        W33213   6.046   7.717   9.275 -0.0751  0.0608 -0.0060
    1W        W33214  22.757  13.612   9.187 -0.2214 -0.0213  0.0304
    1W        W33215   2.180  14.254   0.196 -0.1547 -0.0549 -0.1127
    1W        W33216  28.134  18.440   1.827 -0.2419 -0.1494  0.1177
    1W        W33217  11.053   7.349   7.739 -0.1470 -0.0598  0.1645
    1W        W33218  23.201  24.738   0.732 -0.0191 -0.2748  0.0327
    1W        W33219  15.343   4.595   8.027  0.3116 -0.1038 -0.0636
    1W        W33220  20.191   1.786   8.345 -0.0445 -0.0562  0.2638
    1W        W33221   8.579  10.938   2.242 -0.0713 -0.0505 -0.0562
    1W        W33222  15.156   0.453   9.289  0.0535 -0.1391 -0.1516
    1W        W33223  12.846  25.898   0.286 -0.0274 -0.2453 -0.1930
    1W        W33224  27.240  24.479   7.245  0.0071 -0.0696  0.2749
    1W        W33225  26.193  28.431   6.456 -0.1624 -0.0062 -0.0804
    1W        W33226   7.147  19.772   9.229  0.0477  0.0305 -0.0931
    1W        W33227  18.792  15.066   8.425 -0.0397 -0.0742  0.1029
    1W        W33228   0.359   4.673   7.208  0.0831  0.1475 -0.2089
    1W        W33229  29.645  21.101   1.884  0.3103  0.0329  0.2144
    1W        W33230  19.328  14.760   0.263  0.0390 -0.0036  0.0110
    1W        W33231   1.751  29.505   8.413 -0.1009  0.1830 -0.3602
    1W        W33232  29.734  16.001   1.317 -0.0171  0.2610  0.0269
    1W        W33233  11.267   8.412   1.092  0.1564 -0.1318 -0.1099
    1W        W33234  25.991   4.178   0.938 -0.1133 -0.1892  0.2111
    1W        W33235  11.736  12.175   0.399  0.1939 -0.1564  0.4180
    1W        W33236  25.364   3.641   2.166  0.1471  0.2624  0.0492
    1W        W33237  13.203   1.151   7.649 -0.0284 -0.1101  0.1169
    1W        W33238  15.155  14.070   7.974  0.2544  0.0096  0.2077
    1W        W33239   2.216  17.165   8.181  0.2595  0.0048  0.2119
    1W        W33240  10.790  20.357   6.731 -0.2534 -0.1656  0.1376
    1W        W33241  13.937  19.013   8.864  0.0275 -0.1697  0.2314
    1W        W33242  10.668  24.841   6.522 -0.1264  0.0756  0.0210
    1W        W33243  20.561  16.449   0.981  0.3387 -0.0634  0.2183
    1W        W33244  12.611  16.481   0.864  0.1190  0.1294  0.2531
    1W        W33245  17.664  22.859   8.797  0.0795  0.1732  0.0023
    1W        W33246  15.478   4.188   7.707 -0.0075  0.1929  0.0455
    1W        W33247  24.627  23.025   0.091  0.1324  0.0133  0.1209
    1W        W33248  27.152  20.184   8.277 -0.1923 -0.1980 -0.0375
    1W        W33249  24.933  29.403   7.979  0.0647  0.0586 -0.2079
    1W        W33250  27.295  28.528   2.552  0.1080 -0.0213  0.3771
    1W        W33251  29.447  18.657   1.551  0.0066  0.1755  0.2383
    1W        W33252   1.423   1.238   0.871 -0.1596 -0.2332 -0.1579
    1W        W33253  10.147   5.390   0.323  0.4979 -0.1067  0.0198
    1W        W33254  14.352  29.811   8.396  0.0373 -0.0797 -0.0240
    1W        W33255  28.464  21.089   0.202 -0.0999  0.1737  0.0388
    1W        W33256  15.399  10.957   1.734  0.0393  0.1695 -0.2572
    1W        W33257  25.819  26.039   7.716 -0.0849 -0.0112 -0.0491
    1W        W33258  12.008  27.996   9.049 -0.0202  0.0986 -0.0037
    1W        W33259  25.239   7.546   7.893  0.0638  0.0884 -0.0084
    1W        W33260  10.474  10.911   7.985  0.1721 -0.1125 -0.2555
    1W        W33261   5.082  19.601   8.220  0.0447  0.2222 -0.1402
    1W        W33262  14.283  10.171   1.883 -0.1981 -0.0417  0.0522
    1W        W33263  27.293   1.609   8.023 -0.1524 -0.1147  0.3156
    1W        W33264   2.172  23.536   0.493  0.1155 -0.0121 -0.0779
    1W        W33265  20.693  18.027   7.639  0.2009  0.0663 -0.0968
    1W        W33266  28.409  24.777   1.275  0.0466  0.0686 -0.0487
    1W        W33267   5.143   4.822   9.168  0.0153  0.2536 -0.0201
    1W        W33268  14.914  23.505   2.712  0.0187 -0.0025 -0.2421
    1W        W33269  19.250  24.918   0.772  0.2839  0.0805 -0.1611
    1W        W33270  17.197   1.417   7.327 -0.0210  0.0573 -0.1396
    1W        W33271   1.987   3.623   3.165  0.0769  0.0895 -0.1664
    1W        W33272  16.461  15.216   7.838 -0.3600 -0.1134  0.4419
    1W        W33273  17.734  22.488   0.495  0.2068  0.0168 -0.0611
    1W        W33274  28.302  26.938   8.102 -0.1307  0.0573 -0.0007
    1W        W33275  23.081  17.255   6.786  0.0421  0.1384  0.0563
    1W        W33276  11.652   1.494   0.630  0.2500  0.0413  0.1430
    1W        W33277  25.535   1.043   3.136 -0.1261 -0.3112 -0.1440
    1W        W33278   4.246  29.761   8.068  0.2786 -0.0407 -0.1988
    1W        W33279  28.895  11.827   0.934 -0.1455 -0.1021 -0.2066
    1W        W33280  17.873  25.535   7.263  0.1931 -0.2330 -0.0506
    1W        W33281   0.285  28.858   0.961  0.1994 -0.0769 -0.0183
    1W        W33282   6.427   4.981   0.203 -0.1943  0.1350  0.3269
    1W        W33283  17.800  24.533   8.101  0.2735  0.0513 -0.0490
    1W        W33284  13.308   6.046   1.092 -0.0052  0.2811 -0.3473
    1W        W33285   7.221   4.086   0.656  0.0779  0.1528 -0.2012
    1W        W33286   7.988  12.925   8.685  0.0940 -0.0891 -0.1204
    1W        W33287   5.833  17.659   9.428 -0.0936  0.1715 -0.1417
    1W        W33288   0.184  26.917   0.055 -0.1763  0.3310 -0.0302
    1W        W33289   0.775   1.106   2.653  0.2084 -0.0325 -0.0630
    1W        W33290  20.841  23.324   2.575 -0.1205 -0.3753 -0.2931
    1W        W33291  17.396   7.875   1.246  0.2313  0.2210  0.0163
    1W        W33292  20.153   6.454   9.318  0.2039 -0.0972 -0.2496
    1W        W33293  18.919   9.498   0.737 -0.0016  0.3072 -0.4439
    1W        W33294   8.220   9.440   2.583 -0.1340  0.2181  0.3933
    1W        W33295  20.718  12.515   1.587  0.2836  0.0695  0.2057
    1W        W33296  13.257  13.296   1.084 -0.0233  0.3208 -0.0699
    1W        W33297  10.263   7.413   0.118  0.0469  0.0580 -0.1755
    1W        W33298   8.929   8.334   8.156  0.2099 -0.1806 -0.0701
    1W        W33299   7.285  21.334   6.204  0.1693  0.3979 -0.3835
    1W        W33300  22.117   4.362   0.291 -0.3846  0.1019  0.1324
    1W        W33301  15.312   6.201   8.032 -0.2919 -0.1645 -0.0696
    1W        W33302  15.506   2.039   6.719  0.1565  0.0489  0.1020
    1W        W33303  22.536  22.394   2.054 -0.0950 -0.1319 -0.1307
    1W        W33304  11.896  29.510   7.211  0.0465 -0.1636 -0.1375
    1W        W33305  22.183  13.802   1.804  0.0636 -0.0100  0.1495
    1W        W33306  14.717  17.461   7.600  0.1152 -0.2270 -0.2633
    1W        W33307   2.144   1.668   7.052  0.2063  0.0214  0.2956
    1W        W33308  17.979  17.602   6.989  0.1246 -0.1132  0.1353
    1W        W33309   5.693  20.881   0.540  0.2470  0.0768  0.1354
    1W        W33310  18.561  14.155   0.065  0.0270  0.0915  0.1322
    1W        W33311   1.780  15.969   1.718 -0.1756  0.1401 -0.3048
    1W        W33312   5.810   2.338   0.866 -0.0421 -0.1601 -0.1154
    1W        W33313  12.327   7.353   9.434  0.2787 -0.1211 -0.1598
    1W        W33314   5.770  21.559   7.163 -0.0519  0.0744  0.2457
    1W        W33315  11.238   5.006   2.384  0.1497  0.4322  0.0350
    1W        W33316   0.486  19.312   1.981 -0.2924 -0.2358  0.0855
    1W        W33317  13.581   0.732   8.175 -0.2626 -0.0942 -0.1072
    1W        W33318   7.694  10.844   1.234  0.0395 -0.0950  0.0315
    1W        W33319  14.630  17.849   7.167 -0.1302 -0.0634 -0.1547
    1W        W33320   6.035  23.941   9.083  0.2507 -0.0783 -0.3278
    1W        W33321  14.011   8.570   2.758  0.1171 -0.0040  0.3411
    1W        W33322   9.158  12.279   8.811  0.0203  0.0725  0.0917
    1W        W33323   5.321  23.771   8.495 -0.0645 -0.3384 -0.2320
    1W        W33324  25.127  24.399   7.194 -0.0744 -0.4379 -0.1761
    1W        W33325   0.541  25.304   1.148 -0.2943 -0.2703 -0.3186
    1W        W33326  20.133   2.962   2.548  0.1396 -0.0689 -0.3599
    1W        W33327   2.120  10.703   6.959  0.0473  0.0218 -0.2366
    1W        W33328   1.066  23.001   6.904 -0.0143  0.1976 -0.1655
    1W        W33329   7.001  11.641   8.403 -0.0433 -0.0576  0.4610
    1W        W33330  16.706  11.721   7.100 -0.1480  0.0228 -0.3092
    1W        W33331  27.457  12.752   8.471 -0.0313 -0.0660  0.5418
    1W        W33332   1.263  22.572   0.823  0.0882  0.0675 -0.0379
    1W        W33333  17.845  23.781   0.289 -0.0939 -0.0325  0.1005
    1W        W33334   2.400  22.259   1.746 -0.0079 -0.0354  0.1167
    1W        W33335  21.381  15.709   8.823  0.1745  0.0182 -0.1518
    1W        W33336  29.187  20.989   9.231  0.0881  0.0450  0.2208
    1W        W33337   5.651  29.088   6.804 -0.0614  0.1421  0.2757
    1W        W33338  12.613  20.121   7.257 -0.0174  0.0369 -0.0081
    1W        W33339   5.451  19.826   7.301 -0.0066 -0.0145 -0.1439
    1W        W33340  20.711   2.021   6.036 -0.0178  0.0534  0.0008
    1W        W33341   4.666  26.762   0.968  0.3387 -0.0314 -0.1367
    1W        W33342   6.020   9.977   0.511 -0.1704 -0.1294 -0.0205
    1W        W33343  21.015  12.351   1.161 -0.0385 -0.3203  0.2734
    1W        W33344  11.412  23.761   8.972 -0.0379  0.2039 -0.0597
    1W        W33345   0.200  21.665   0.520 -0.1151  0.0984 -0.0415
    1W        W33346  19.763  25.796   8.834 -0.1287 -0.2413  0.1466
    1W        W33347  22.024  10.694   7.610  0.2314  0.1223 -0.1488
    1W        W33348  25.362  28.770   0.613 -0.0223 -0.1186  0.0906
    1W        W33349   1.197  27.917   8.971 -0.1846 -0.0080 -0.3700
    1W        W33350  21.514   8.614   1.352 -0.1441 -0.0168  0.3103
    1W        W33351   9.170   9.608   9.002 -0.2495 -0.1572 -0.0146
    1W        W33352   2.380  14.523   1.599 -0.2078 -0.0818 -0.0997
    1W        W33353   1.912  10.031   2.833  0.3980  0.1517  0.1117
    1W        W33354   7.598  27.371   0.959  0.0245 -0.2575 -0.0615
    1W        W33355  27.206  19.123   2.713  0.0029  0.0498  0.0433
    1W        W33356   9.448   3.681   1.840  0.1514 -0.1226  0.0954
    1W        W33357  26.216  11.908   6.588  0.2050  0.1873  0.0072
    1W        W33358   3.130  14.595   8.737 -0.0113 -0.3581 -0.1635
    1W        W33359  12.017  21.538   9.184  0.0989 -0.2181  0.1525
    1W        W33360   0.277  11.639   6.839 -0.0085 -0.1285  0.0681
    1W        W33361   5.246  12.529   7.173 -0.1340 -0.2794  0.0493
    1W        W33362  14.452  14.326   7.318 -0.1336  0.0109 -0.0482
    1W        W33363   8.760   4.314   0.316 -0.1815 -0.0928 -0.2827
    1W        W33364   6.487   3.350   0.796 -0.2795  0.0047  0.0578
    1W        W33365   7.212  16.148   2.671  0.2528 -0.3939 -0.2005
    1W        W33366  21.243   4.752   8.768 -0.0861  0.0375 -0.1894
    1W        W33367  24.779  13.499   0.215  0.1015 -0.0881  0.1027
    1W        W33368   8.858   3.453   0.018  0.2233 -0.1633  0.2315
    1W        W33369  17.276   8.549   0.891 -0.0298  0.0393 -0.1106
    1W        W33370  25.568   1.416   0.395  0.0464 -0.1539  0.0562
    1W        W33371   9.515  17.764   1.450 -0.0078 -0.0003  0.1119
    1W        W33372  12.826  13.391   7.493 -0.1629 -0.0517 -0.2584
    1W        W33373  29.391   4.203   9.239 -0.1452 -0.2694  0.1943
    1W        W33374   6.217  15.683   1.585 -0.2158 -0.1787 -0.3850
    1W        W33375  15.291   4.253   1.038 -0.1710 -0.1026 -0.0001
    1W        W33376  21.602   9.043   8.309 -0.0660  0.1155  0.3427
    1W        W33377  22.449  24.445   7.184  0.0053  0.1140  0.1286
    1W        W33378  15.837  10.711   7.418 -0.1583  0.2234  0.1167
    1W        W33379  11.033   4.723   0.974  0.2644 -0.0391 -0.2833
    1W        W33380  21.606  17.644   7.563  0.0559  0.0371 -0.1711
    1W        W33381   6.603  29.327   3.787 -0.4384  0.0758  0.1196
    1W        W33382   5.410  24.927   6.565  0.1209  0.0628  0.2360
    1W        W33383  27.225   3.017   7.967 -0.1761 -0.0170 -0.1504
    1W        W33384  23.816  20.036   2.306 -0.0016 -0.0145 -0.0258
    1W        W33385  25.367   9.655   8.779  0.0866  0.3004 -0.1125
    1W        W33386   2.031   4.049   0.807 -0.0448 -0.2607 -0.4094
    1W        W33387  11.735  19.622   1.726  0.3559  0.0488  0.2265
    1W        W33388  19.974  17.280   9.424 -0.0463  0.1675 -0.2577
    1W        W33389   2.564  23.845   2.102  0.0875 -0.1766 -0.2181
    1W        W33390  21.193   6.799   2.296 -0.2229 -0.1455 -0.0427
    1W        W33391  15.110  20.668   0.258  0.4230 -0.0545 -0.1451
    1W        W33392  10.236  28.876   8.468 -0.2861  0.1256  0.2165
    1W        W33393  21.898  25.075   7.767 -0.2363 -0.0880 -0.1524
    1W        W33394   3.250   3.752   2.343  0.3370  0.1749  0.1316
    1W        W33395   4.827  19.339   8.853 -0.1195 -0.2976 -0.0354
    1W        W33396   6.559   9.338   6.832  0.1257  0.3165  0.2211
    1W        W33397   4.366  16.567   0.744  0.1248  0.1018 -0.1625
    1W        W33398   8.121  19.411   0.945  0.0399  0.0590 -0.5161
    1W        W33399   9.964   2.824   2.042  0.1549 -0.4934 -0.1956
    1W        W33400  22.728   3.156   0.843  0.0635 -0.2272 -0.0465
    1W        W33401   1.661   8.185   0.313 -0.1017 -0.0481 -0.1654
    1W        W33402  14.868   0.303   1.193 -0.1044 -0.1067  0.0263
    1W        W33403   7.104  17.807   7.666 -0.3276 -0.2278  0.1843
    1W        W33404  18.863  28.450   1.222  0.0511  0.0901  0.0838
    1W        W33405   7.833  23.165   6.439 -0.0522 -0.1555  0.0049
    1W        W33406  26.189  11.349   5.781  0.2244 -0.4728 -0.2902
    1W        W33407   1.025  13.727   7.408 -0.1656 -0.2297  0.0428
    1W        W33408  14.592  29.274   0.682  0.2922 -0.3122  0.2515
    1W        W33409  20.363   7.170   1.031  0.4692 -0.0206 -0.2870
    1W        W33410  11.064   3.772   8.538  0.2768 -0.1870  0.1267
    1W        W33411   6.544  27.337   0.047  0.0288 -0.0632 -0.0505
    1W        W33412  21.673  21.019   8.917 -0.2016  0.1598 -0.0939
    1W        W33413  12.227  20.396   7.558  0.0878  0.2007 -0.0155
    1W        W33414  24.268   7.586   9.124 -0.0428 -0.1193 -0.0314
    1W        W33415   9.472  20.829   1.280 -0.1512 -0.3340 -0.0636
    1W        W33416   2.932  15.035   6.829 -0.1565  0.2472 -0.0169
    1W        W33417  28.311   7.529   8.932 -0.0020  0.0905 -0.1357
    1W        W33418  16.231  19.274   2.593  0.1912  0.0726 -0.0036
    1W        W33419   5.147  16.726   9.071  0.1885  0.0807  0.0221
    1W        W33420  10.372  10.784   8.549 -0.3051  0.2028 -0.0909
    1W        W33421   4.253   2.905   2.128  0.1672  0.1184 -0.1753
    1W        W33422   2.180   5.121   2.379  0.3804  0.1273  0.0504
    1W        W33423  14.939  21.163   8.869  0.0270 -0.0951 -0.1655
    1W        W33424  26.985  16.307   2.057 -0.0110  0.4279  0.0915
    1W        W33425  21.639  11.703   8.068  0.1712  0.2497 -0.2004
    1W        W33426   7.198   9.662   9.353 -0.0739 -0.5784 -0.0072
    1W        W33427  21.566  18.557   7.395 -0.1768  0.1063 -0.1018
    1W        W33428  18.579  26.628   7.834  0.0333 -0.5710  0.2539
    1W        W33429   7.822  29.067   6.575  0.1312 -0.1749  0.0027
    1W        W33430  29.059  15.942   7.063  0.0068  0.0608  0.1008
    1W        W33431  25.226  13.194   5.619  0.1491  0.2547  0.0850
    1W        W33432  19.033  25.693   0.606  0.1619 -0.0764  0.0090
    1W        W33433   8.349  15.489   7.840  0.0528 -0.0115 -0.1727
    1W        W33434   4.798  20.607   0.404 -0.0387 -0.0247  0.0915
    1W        W33435  22.464   8.280   6.903 -0.2920  0.1650  0.0147
    1W        W33436  12.319  27.244   2.655 -0.0936  0.1006  0.3237
    1W        W33437   0.466   4.719   0.066  0.0128  0.3030 -0.2316
    1W        W33438  13.987  12.087   2.220 -0.0119 -0.1908  0.2176
    1W        W33439  29.100   4.832   2.871  0.0091  0.0650  0.0562
    1W        W33440  18.392  18.387   2.639  0.3830 -0.2629 -0.2017
    1W        W33441  23.846  19.825   6.728 -0.1415  0.1319 -0.1254
    1W        W33442  26.940   8.207   6.369  0.1725  0.0984 -0.1349
    1W        W33443  28.651  21.252   7.289 -0.0524  0.0525 -0.0026
    1W        W33444   8.745  28.691   6.895 -0.0069 -0.0174 -0.4506
    1W        W33445   9.538  17.127   6.566 -0.2097  0.2095  0.1505
    1W        W33446   7.108  23.952   7.501  0.1802 -0.1942  0.1433
    1W        W33447  20.471  29.764   6.920 -0.0197 -0.1932 -0.0841
    1W        W33448   5.569  12.930   6.014 -0.0202  0.0447  0.0148
    1W        W33449   6.705  12.794   6.180 -0.3477  0.2937  0.1644
    1W        W33450  11.506  23.177   6.826  0.0213  0.3150  0.1452
    1W        W33451  18.016  28.708   0.842  0.4184 -0.2136  0.3485
    1W        W33452  16.311   1.300   2.225 -0.0623 -0.4101  0.0353
    1W        W33453  11.217  27.812   8.342 -0.0884 -0.0957 -0.0823
    1W        W33454   4.276  17.770   8.873  0.1618  0.0538 -0.0445
    1W        W33455  21.514  10.979   0.853  0.0100  0.2681  0.1388
    1W        W33456  14.162   6.804   0.053 -0.3783 -0.0320  0.0022
    1W        W33457  11.757  25.422   7.385 -0.1729 -0.0706  0.0998
    1W        W33458   4.014  11.796   1.545 -0.1576 -0.1669  0.2150
    1W        W33459  24.901   6.561   1.283 -0.1735  0.3663  0.0047
    1W        W33460   9.427  25.308   7.643  0.1924  0.0051  0.3194
    1W        W33461   6.955  14.010   7.761  0.1834 -0.1680  0.1352
    1W        W33462   0.814   6.740   0.357 -0.0887  0.2590 -0.0908
    1W        W33463   6.493  17.789   8.384 -0.0950  0.0106  0.0222
    1W        W33464   5.985  24.438   2.111  0.1148  0.3167 -0.1118
    1W        W33465  29.486   5.861   7.536  0.0965 -0.0035  0.0699
    1W        W33466   7.644  14.254   1.461 -0.0389 -0.0992 -0.0385
    1W        W33467  21.470  12.797   8.040 -0.2957 -0.0761 -0.1969
    1W        W33468  23.308   6.367   8.953  0.0852  0.1130  0.0334
    1W        W33469  16.637  21.722   0.682  0.1414  0.2246 -0.0068
    1W        W33470  27.198   5.448   1.282 -0.1394 -0.0223 -0.1281
    1W        W33471   4.900   6.283   0.569  0.1913  0.0511 -0.1818
    1W        W33472  27.722  28.020   7.342  0.3120  0.1281 -0.1481
    1W        W33473  16.893  21.338   1.622  0.0815  0.2108  0.0235
    1W        W33474   2.040  13.441   9.069  0.1224 -0.2895 -0.0121
    1W        W33475  12.013  27.965   1.780 -0.0676 -0.0385  0.2696
    1W        W33476  13.408  19.203   7.404  0.0793  0.2788  0.3067
    1W        W33477  26.410  26.570   2.108 -0.1525 -0.1006  0.0163
    1W        W33478   3.821  24.197   7.394  0.0806 -0.0097  0.2616
    1W        W33479   4.635   2.591   2.023  0.0310 -0.0408 -0.0049
    1W        W33480  29.208  20.162   8.516 -0.1018  0.2295  0.1043
    1W        W33481  29.304   7.590   2.485 -0.4206  0.2403 -0.0757
    1W        W33482  10.801   6.449   8.265 -0.0520 -0.3505  0.4221
    1W        W33483   0.296   7.792   2.508 -0.1108  0.2398  0.2995
    1W        W33484  14.044   8.264   8.706 -0.5057  0.1448  0.0283
    1W        W33485  24.012   6.804   1.923  0.0723  0.2047 -0.2137
    1W        W33486   6.233  19.480   9.264 -0.0644 -0.1981  0.0506
    1W        W33487   8.933  24.007   6.708 -0.1087 -0.0329  0.0812
    1W        W33488   1.592  13.674   2.188 -0.2651  0.0020 -0.0030
    1W        W33489  29.515  21.595   6.973 -0.0723 -0.3904  0.0444
    1W        W33490  12.585  20.675   0.786  0.0777  0.3149 -0.0209
    1W        W33491  24.349  22.077   7.022  0.1820 -0.2145 -0.1063
    1W        W33492  10.129   1.196   1.406 -0.1137 -0.1273 -0.0914
    1W        W33493  21.267  10.957   1.281  0.3355 -0.0313 -0.1024
    1W        W33494  27.877  23.724   6.386 -0.0942 -0.0182 -0.1585
    1W        W33495  18.327   3.804   8.043 -0.3257 -0.3084 -0.1118
    1W        W33496  27.909   1.486   2.687 -0.0162 -0.0580  0.1677
    1W        W33497   9.691  13.693   2.175  0.1509  0.1495 -0.0082
    1W        W33498  26.259  26.593   1.601 -0.0134 -0.2385 -0.0125
    1W        W33499  28.458  14.361   8.553  0.0424  0.1904 -0.1174
    1W        W33500  20.597  12.619   1.003 -0.1179  0.3840  0.3652
    1W        W33501   1.418  19.211   1.817  0.2167  0.0003  0.3274
    1W        W33502   1.034   8.795   7.979  0.1820 -0.0070 -0.4325
    1W        W33503  10.109  20.455   8.996 -0.1363 -0.0294  0.1903
    1W        W33504   8.824  23.596   5.535  0.2469  0.0886  0.0647
    1W        W33505  27.441   6.748   2.835 -0.2574 -0.1023  0.1281
    1W        W33506  22.867  12.295   1.646 -0.0519 -0.3487  0.2700
    1W        W33507  22.413   7.673   1.893  0.0031 -0.0851  0.2889
    1W        W33508  21.190  27.247   7.019 -0.0575  0.1037 -0.2157
    1W        W33509  15.346  27.747   9.363  0.0228 -0.0603 -0.1195
    1W        W33510  20.959  26.886   8.840 -0.1910 -0.1534 -0.0885
    1W        W33511  26.156  29.736   7.211  0.3259  0.1274 -0.1826
    1W        W33512   6.238  11.632   1.763 -0.2023 -0.3873 -0.0492
    1W        W33513  13.201  12.284   2.576 -0.2464 -0.3797  0.1624
    1W        W33514  25.159  10.571   8.699 -0.0030 -0.0055 -0.3871
    1W        W33515   8.317   7.684   8.531 -0.0998 -0.0800 -0.1811
    1W        W33516  12.113   4.247   3.817  0.3511  0.0329  0.0172
    1W        W33517  23.642  14.624   7.022 -0.4180  0.1267  0.1072
    1W        W33518  24.344  29.405   9.258 -0.0409 -0.2850  0.0412
    1W        W33519  28.367  22.252   7.189 -0.0966  0.1869 -0.1579
    1W        W33520  17.508  24.121   7.812  0.1375  0.1738 -0.0553
    1W        W33521   9.804  10.619   0.291 -0.1799  0.3934 -0.0477
    1W        W33522  26.081  13.178   6.307  0.1185  0.0129 -0.0533
    1W        W33523   4.274  14.998   0.077 -0.0332 -0.0660 -0.0668
    1W        W33524  27.885  27.168   2.502  0.1356 -0.1244  0.0886
    1W        W33525   2.260  13.873   8.100  0.1800  0.1299 -0.3068
    1W        W33526  29.153  20.748   1.682  0.3246  0.4012 -0.0313
    1W        W33527   8.730  10.954   1.804 -0.1004  0.2781 -0.1927
    1W        W33528  15.275   0.492   3.860 -0.3274  0.0589  0.1650
    1W        W33529  12.715  18.712   8.180 -0.1609  0.0544  0.0958
    1W        W33530   8.231   4.051   3.927  0.0628 -0.0486 -0.0919
    1W        W33531  16.756  20.894   1.143 -0.6933  0.2614 -0.1594
    1W        W33532  17.833  12.050   9.269 -0.2093  0.0946 -0.3411
    1W        W33533  16.513   4.515   9.040 -0.2456 -0.1320 -0.0894
    1W        W33534  18.650  15.103   1.914  0.1851 -0.0765  0.4167
    1W        W33535  12.906  20.984   9.299 -0.1853  0.1533 -0.2285
    1W        W33536   1.140  11.186   1.758  0.1084 -0.0122 -0.0137
    1W        W33537  21.559  15.816   5.859  0.1567 -0.1050 -0.2263
    1W        W33538  23.626  20.689   7.766 -0.0028 -0.1414 -0.1410
    1W        W33539   3.858   5.930   8.730  0.0439 -0.2341 -0.1241
    1W        W33540  10.487  12.344   9.281 -0.1582  0.0807 -0.2823
    1W        W33541  12.570  10.943   2.198 -0.0189  0.0682  0.1482
    1W        W33542   4.318  27.333   2.127  0.3645 -0.2455  0.2049
    1W        W33543  23.139   6.211   2.851 -0.1789  0.0651 -0.0454
    1W        W33544   2.225  24.168   6.380 -0.0249 -0.0247  0.2282
    1W        W33545  19.007   6.612   0.941 -0.0675 -0.0926  0.1825
    1W        W33546  24.255  27.843   2.545 -0.1042  0.0760 -0.0372
    1W        W33547  27.397   7.884   1.384  0.1696  0.2733  0.1492
    1W        W33548  11.547   1.389   7.229 -0.0755 -0.0081 -0.1357
    1W        W33549  12.647  13.128   8.847  0.2713  0.0860  0.0987
    1W        W33550  11.825  25.994   7.259  0.1066 -0.1537 -0.3700
    1W        W33551  18.073  26.671   2.250 -0.2705 -0.1246  0.2051
    1W        W33552  22.077   4.427   8.883  0.1661  0.2027 -0.0798
    1W        W33553   3.131   0.146   7.555  0.1144  0.2187 -0.0180
    1W        W33554  25.038  10.048   8.382 -0.0212  0.1729 -0.0519
    1W        W33555  26.375   9.359   0.596 -0.1230 -0.2306  0.0099
    1W        W33556  27.579  18.862   7.542 -0.1994 -0.1134  0.1006
    1W        W33557  21.499  18.397   2.224  0.0621 -0.0022 -0.0168
    1W        W33558  23.515  24.132   2.770  0.0701  0.1007  0.0979
    1W        W33559   6.583  20.265   8.937  0.0319 -0.1544  0.0103
    1W        W33560   3.660   5.298   7.982  0.0819  0.0228  0.1748
    1W        W33561  27.625  20.533   7.387  0.0046  0.0377  0.0144
    1W        W33562  15.301  26.309   1.960  0.0281 -0.1442 -0.1722
    1W        W33563  25.201  17.674   6.778  0.2654  0.0809  0.0082
    1W        W33564   4.669  21.679   7.503 -0.0232 -0.0414 -0.4144
    1W        W33565   4.153  22.189   6.279 -0.3202 -0.2931  0.0632
    1W        W33566   8.063   7.388   2.221 -0.1876 -0.1596 -0.2104
    1W        W33567   8.738  18.115   6.877 -0.3672 -0.0710 -0.2845
    1W        W33568   5.576  27.036   1.220  0.4472 -0.1514  0.2647
    1W        W33569  10.817  13.605   0.870  0.0561 -0.3175  0.0857
    1W        W33570  26.400   7.883   9.168  0.0799 -0.1376  0.2429
    1W        W33571  10.837  11.465   1.132 -0.0125  0.0317  0.2982
    1W        W33572  19.297  28.447   1.428 -0.2672  0.1020 -0.0212
    1W        W33573  10.844  20.362   1.845  0.0516 -0.0331  0.1795
    1W        W33574   7.122  27.978   2.686 -0.0047  0.2690  0.4815
    1W        W33575  10.384  10.989   3.013  0.2545  0.1380  0.0093
    1W        W33576   5.235  28.345   8.676 -0.0370  0.0566 -0.0446
    1W        W33577  19.837  19.562   7.909  0.2173 -0.3452  0.0114
    1W        W33578  27.791  17.274   8.023 -0.0728 -0.0643  0.1346
    1W        W33579  16.279   7.179   8.669 -0.3498  0.0206  0.1944
    1W        W33580  17.429  12.039   0.208  0.1096 -0.3713  0.0980
    1W        W33581  18.257   0.784   1.121  0.1350  0.2290  0.0106
    1W        W33582   3.703   7.890   8.639 -0.1520 -0.1070  0.0316
    1W        W33583  27.693  10.248   8.333 -0.0976  0.0222 -0.1684
    1W        W33584  26.787  24.126   8.293 -0.0854  0.0225  0.0841
    1W        W33585   4.296   1.934   1.542  0.3533 -0.0714 -0.0522
    1W        W33586  26.891  23.251   1.429  0.0096 -0.1820 -0.2489
    1W        W33587  11.858  22.424   9.084  0.0799  0.1794 -0.0226
    1W        W33588  14.650   7.003   7.677  0.0184 -0.0725 -0.1417
    1W        W33589   2.146  29.004   1.561  0.0997  0.0630  0.0288
    1W        W33590  23.484  14.523   7.569  0.2146 -0.0709  0.0364
    1W        W33591   6.932  11.480   8.923 -0.0870 -0.0595  0.0148
    1W        W33592   3.328  21.703   0.457  0.0215  0.3143 -0.0816
    1W        W33593  29.202  25.850   6.551 -0.1424 -0.1190 -0.1457
    1W        W33594  26.925  17.240   6.526  0.3881  0.0396  0.1501
    1W        W33595  19.781  22.364   9.085  0.0784 -0.1461  0.1300
    1W        W33596  25.086   2.867   9.458 -0.1240 -0.0193  0.1867
    1W        W33597   9.019  12.376   1.561 -0.3079 -0.1936  0.2511
    1W        W33598   0.001  29.444   7.713 -0.1336  0.2454  0.2344
    1W        W33599  10.624   0.823   9.332  0.2154  0.1346 -0.0862
    1W        W33600  13.344   2.641   8.588  0.0739 -0.1420  0.2146
    1W        W33601  18.442  26.562   3.517 -0.0805 -0.0606 -0.4721
    1W        W33602  24.355  12.257   8.005  0.2837 -0.3068  0.0767
    1W        W33603   9.566  12.992   2.106 -0.0161 -0.2916  0.1187
    1W        W33604  16.044  22.703   1.665  0.0087  0.0868  0.1988
    1W        W33605  20.558  13.000   1.437  0.1139  0.2605 -0.2847
    1W        W33606  14.620  14.394   8.606 -0.0515 -0.0852 -0.1458
    1W        W33607   5.761   3.402   2.015 -0.0106 -0.0508  0.1643
    1W        W33608   2.006  18.648   0.243  0.0366 -0.0473 -0.1278
    1W        W33609  12.781  11.736   8.700 -0.2247  0.0569  0.2253
    1W        W33610  23.571  27.726   0.598 -0.1901 -0.1437  0.5156
    1W        W33611  11.789   6.780   0.848  0.3695  0.0109 -0.0654
    1W        W33612  17.540  14.164   7.647 -0.0538 -0.0409 -0.0064
    1W        W33613  10.672  17.060   1.844  0.0506 -0.1197 -0.0332
    1W        W33614   0.967  14.719   0.216 -0.0619 -0.3228 -0.4377
    1W        W33615  28.931   7.077   6.839 -0.0114  0.2414  0.1044
    1W        W33616  22.674   5.588   1.786  0.0630  0.2036  0.2422
    1W        W33617   8.225  17.765   6.843 -0.0879  0.0442  0.0002
    1W        W33618  29.635   2.717   8.038  0.0153  0.3266  0.0149
    1W        W33619   0.982  14.660   2.515 -0.0589  0.2414 -0.1848
    1W        W33620  17.282  25.496   7.674 -0.1940 -0.2386  0.0614
    1W        W33621   4.294  25.337   7.207  0.0325 -0.0120  0.1171
    1W        W33622   3.221   7.751   7.060 -0.0578 -0.0684 -0.1561
    1W        W33623  26.656  18.399   6.269 -0.1102 -0.2519  0.2384
    1W        W33624  29.570   1.644   0.271  0.0300  0.1655 -0.0300
    1W        W33625   3.669  21.912   7.238 -0.0556 -0.2144 -0.0833
    1W        W33626   0.272  28.496   2.441 -0.1055  0.4272 -0.1349
    1W        W33627   5.981  10.131   2.289  0.2349  0.0640 -0.1923
    1W        W33628  11.784   2.354   2.073  0.2433 -0.0880  0.0032
    1W        W33629  26.587  16.542   1.265  0.0650  0.0492 -0.1950
    1W        W33630  13.370  11.485   7.425 -0.0157  0.0941  0.0773
    1W        W33631  19.416   6.852   2.675  0.1256  0.0910  0.0290
    1W        W33632  10.688  20.291   1.407 -0.1760 -0.3156 -0.0204
    1W        W33633   8.166  13.953   0.811 -0.0027 -0.0706  0.2101
    1W        W33634  14.581   4.306   8.177  0.0453  0.0239 -0.2135
    1W        W33635  26.525  27.590   7.556 -0.3345  0.0783  0.1129
    1W        W33636   7.646  10.159   2.725  0.0629  0.3362 -0.0834
    1W        W33637  21.201  29.496   0.360  0.2449  0.1212 -0.0586
    1W        W33638  24.012   2.464   1.703  0.5027 -0.0875 -0.4475
    1W        W33639   6.825   0.248   6.616  0.0833 -0.1479  0.0486
    1W        W33640  18.587  12.491   0.869 -0.0981 -0.1663  0.0935
    1W        W33641   5.907  23.435   1.126 -0.0091 -0.0076  0.0247
    1W        W33642   0.889  24.076   6.189 -0.0216  0.2916  0.1892
    1W        W33643  25.236  22.004   2.680  0.1997  0.0769 -0.0800
    1W        W33644  11.572   1.820   8.091 -0.3329 -0.0291 -0.0602
    1W        W33645  26.556  23.523   6.542 -0.0891 -0.0531  0.0764
    1W        W33646  21.498   4.883   8.255  0.0893  0.1137 -0.1543
    1W        W33647  11.329  20.942   1.276 -0.4742  0.0084  0.0730
    1W        W33648  23.396  16.201   2.185  0.1370 -0.1869  0.2020
    1W        W33649   4.809  20.983   8.524  0.2078  0.1133  0.2170
    1W        W33650  26.248  25.824   8.961  0.0232  0.3037 -0.0450
    1W        W33651   3.684   3.731   8.642  0.1007  0.0085 -0.2298
    1W        W33652  28.506  17.681   6.547 -0.2826  0.1089  0.0646
    1W        W33653   0.910  25.988   8.265 -0.3106 -0.0683 -0.1980
    1W        W33654   7.970   2.380   1.229  0.0995  0.1562 -0.0342
    1W        W33655  12.806  26.982   2.431 -0.1708  0.1592 -0.0052
    1W        W33656   5.815  11.111   6.792 -0.2285  0.0480  0.0843
    1W        W33657   3.596  15.054   1.915 -0.1683 -0.0631  0.1749
    1W        W33658  27.239  29.061   2.441  0.2601 -0.2596 -0.2374
    1W        W33659  29.009  12.424   1.260 -0.0253 -0.0883 -0.1360
    1W        W33660  26.830  25.021   0.423 -0.4577  0.2100  0.1426
    1W        W33661  26.724  28.364   8.819 -0.0723 -0.1116 -0.2657
    1W        W33662  27.900  22.226   1.500 -0.1647 -0.0498 -0.2118
    1W        W33663  20.942  24.311   9.088 -0.0245 -0.0072 -0.1802
    1W        W33664   5.042   4.311   0.201  0.2285  0.1098 -0.0973
    1W        W33665   1.461   8.820   1.417 -0.0109  0.1753  0.1697
    1W        W33666  22.590  24.227   8.480 -0.3584  0.2682  0.1015
    1W        W33667   2.092  17.811   6.828 -0.1184 -0.1563  0.0367
    1W        W33668  15.409  19.765   2.164 -0.0345 -0.0215  0.1940
    1W        W33669  23.119   5.035   7.080 -0.1599  0.1510  0.0193
    1W        W33670  18.601  12.812   1.188  0.1923  0.3121 -0.3162
    1W        W33671  27.882   7.648   1.521  0.0183  0.2133  0.2033
    1W        W33672  28.702  15.787   9.384 -0.0767  0.2175  0.4507
    1W        W33673  29.407  19.720   8.789 -0.2239 -0.0977  0.0637
    1W        W33674  14.062  18.173   8.327  0.1655 -0.2438 -0.0089
    1W        W33675  16.659   9.103   1.510  0.0474 -0.3766 -0.2419
    1W        W33676  14.504  11.133   1.916 -0.1045 -0.0731 -0.0573
    1W        W33677   2.776  17.996   8.903  0.1042 -0.0040  0.1344
    1W        W33678  23.131   0.445   8.395 -0.0518 -0.1377 -0.1688
    1W        W33679  15.829   7.239   0.213  0.2563 -0.0288 -0.3143
    1W        W33680   1.152  11.134   8.589  0.0942  0.0138 -0.0595
    1W        W33681  25.443   7.370   7.407  0.1799  0.1291  0.2667
    1W        W33682  23.557  13.893   1.828  0.3589  0.0458  0.2001
    1W        W33683  29.361  14.731   8.394 -0.0620 -0.1516 -0.0469
    1W        W33684   2.847  26.176   0.872  0.1746 -0.2310 -0.0915
    1W        W33685  17.722  20.224   1.841 -0.2925 -0.0102  0.3135
    1W        W33686  12.153   7.263   8.953  0.1710 -0.0739  0.0040
    1W        W33687   4.248  24.563   8.107  0.2973  0.3162 -0.0053
    1W        W33688   7.302  22.413   1.610  0.2248  0.2270  0.1250
    1W        W33689   0.495  25.168   9.085 -0.2223  0.0542  0.2009
    1W        W33690   9.130  24.411   0.242  0.3005 -0.0071 -0.1462
    1W        W33691  18.560  27.483   2.145  0.0720 -0.1448 -0.1452
    1W        W33692  22.719  11.345   0.374 -0.2639  0.4137 -0.1613
    1W        W33693  26.861   3.036   8.874  0.1424 -0.0821 -0.0584
    1W        W33694  17.558   2.119   2.083 -0.1642  0.0487 -0.2907
    1W        W33695  20.820   7.381   8.167  0.0635  0.0877  0.1342
    1W        W33696  24.614   9.690   1.851  0.0540 -0.0105 -0.1028
    1W        W33697   6.485  18.833   7.248  0.1382 -0.1546  0.1733
    1W        W33698  28.673  10.981   9.113  0.0696 -0.0274 -0.2142
    1W        W33699   4.010   9.036   7.756 -0.2673  0.0068 -0.2514
    1W        W33700  16.679  25.291   6.579  0.0822  0.1770  0.1496
    1W        W33701  15.309   0.211   7.024 -0.2992 -0.0027  0.1764
    1W        W33702  10.054  12.283   7.017  0.0427  0.0428 -0.1917
    1W        W33703  24.282  15.931   8.490  0.2248  0.1287 -0.1730
    1W        W33704   0.808   8.333   6.756 -0.3016 -0.0376 -0.2845
    1W        W33705  12.948  11.204   1.978  0.0223  0.0901  0.0494
    1W        W33706   6.410   4.495   8.875  0.1529 -0.2574  0.1139
    1W        W33707  18.803   5.811   0.371 -0.1197  0.0101 -0.0297
    1W        W33708   3.416  10.060   7.017  0.0713 -0.1710  0.2627
    1W        W33709  14.994   7.112   0.616 -0.2618 -0.1343  0.1184
    1W        W33710  25.182  23.762   2.731 -0.0091 -0.1940  0.1025
    1W        W33711   7.965   6.319   0.821 -0.1767  0.1916 -0.2805
    1W        W33712   0.627  13.291   0.700 -0.1200 -0.1206  0.1324
    1W        W33713  22.502  15.287   8.295  0.0352  0.1797 -0.4207
    1W        W33714  18.006   5.833   6.703  0.0611  0.1633  0.0455
    1W        W33715   0.006   3.216   8.008 -0.0738 -0.0964 -0.1666
    1W        W33716   0.440  15.043   7.810  0.0569 -0.0815 -0.2881
    1W        W33717   5.591   5.837   2.516 -0.1072  0.0092 -0.1424
    1W        W33718  17.418  27.158   1.209  0.1608  0.0486 -0.0821
    1W        W33719  18.090   1.750   2.439 -0.3510 -0.1434  0.1656
    1W        W33720  19.518  19.571   1.109 -0.1279 -0.3224 -0.0675
    1W        W33721  16.330  12.293   1.049 -0.2760 -0.0935  0.0953
    1W        W33722  29.591   3.873   8.890  0.0242 -0.0697  0.2152
    1W        W33723  25.515  25.366   8.638 -0.1369  0.3217  0.0705
    1W        W33724   8.391  20.532   0.035  0.3227  0.0769 -0.0022
    1W        W33725  17.008  11.528   8.528  0.1573  0.0690  0.0801
    1W        W33726  24.080  17.547   7.016  0.1032 -0.3468  0.0354
    1W        W33727  16.031  27.212   3.864  0.1820  0.0607 -0.3555
    1W        W33728  15.865  13.228   1.705  0.0294  0.0925  0.2277
    1W        W33729  14.896  10.920   8.833 -0.2888  0.1292 -0.0652
    1W        W33730  28.200   4.390   6.471  0.1989 -0.2841  0.0633
    1W        W33731   0.125   5.060   0.200  0.1040  0.1214 -0.0539
    1W        W33732   0.713   3.725   9.078 -0.3233  0.0951 -0.0314
    1W        W33733   4.600  26.861   2.768 -0.1325 -0.1675  0.0878
    1W        W33734   8.520   6.925   0.968 -0.1896  0.0602  0.2701
    1W        W33735  13.127  20.058   6.523  0.0838 -0.0738  0.0979
    1W        W33736   4.790  28.223   7.406  0.3058 -0.0936 -0.2645
    1W        W33737  18.216  24.053   0.465 -0.2897 -0.0153  0.1891
    1W        W33738  16.408   3.264   0.185 -0.0320 -0.0491  0.0856
    1W        W33739   1.678   2.342   2.492  0.1460  0.1666  0.0082
    1W        W33740  16.812  20.777   1.682 -0.0806 -0.0909 -0.1000
    1W        W33741   1.678  14.378   8.660 -0.1079 -0.0441  0.2817
    1W        W33742  19.755   1.658   0.828  0.0264  0.0062  0.4372
    1W        W33743  27.170  23.292   1.843 -0.2108  0.0768 -0.2213
    1W        W33744  23.777   4.198   7.396  0.0135 -0.1322 -0.1777
    1W        W33745   1.450  13.476   7.210 -0.1523  0.0933  0.4654
    1W        W33746  14.927  17.485   8.564  0.0609  0.3990 -0.2112
    1W        W33747  29.788  13.486   7.710  0.0668 -0.0638 -0.1588
    1W        W33748  26.530  10.136   0.932  0.6034 -0.0653 -0.3036
    1W        W33749  17.686   0.354   2.388 -0.2466  0.3190  0.2639
    1W        W33750  19.816  15.547   0.749 -0.1872  0.3703 -0.1299
    1W        W33751  20.586  21.465   8.512  0.1701  0.2698 -0.0586
    1W        W33752   6.674   8.844   8.017  0.0354  0.3319 -0.1733
    1W        W33753   4.141  26.461   2.334 -0.1638  0.2619  0.0391
    1W        W33754  18.703  20.704   7.180 -0.3298  0.0337 -0.0237
    1W        W33755  19.587  27.422   7.153 -0.0041  0.1346 -0.2054
    1W        W33756  12.433   6.755   2.249  0.1003  0.0296 -0.0511
    1W        W33757  17.921   9.362   9.422  0.0484 -0.1318 -0.3044
    1W        W33758  16.362  17.727   1.005 -0.0709  0.1319  0.0187
    1W        W33759   8.632  23.760   6.433 -0.1224 -0.4449 -0.0179
    1W        W33760  18.937  23.467   3.035 -0.0931  0.3994 -0.0886
    1W        W33761  26.758  21.889   8.542  0.2381  0.2266  0.0207
    1W        W33762  12.515  19.573   8.140 -0.0556 -0.2242  0.1085
    1W        W33763   6.156   5.799   0.503 -0.1287  0.0251  0.2815
    1W        W33764  22.747  18.684   1.591 -0.1604  0.0384 -0.1897
    1W        W33765   7.489  29.712   7.666  0.0468  0.1258 -0.1119
    1W        W33766  28.951  26.427   2.406  0.1912  0.0300  0.1795
    1W        W33767  12.856  15.658   1.089 -0.0371 -0.1318  0.0262
    1W        W33768   1.122  25.772   6.304 -0.2274  0.0240  0.2931
    1W        W33769   7.338  14.997   6.771 -0.1747  0.0809 -0.0630
    1W        W33770  19.341   3.350   7.827 -0.2798 -0.0105 -0.0354
    1W        W33771   1.822   2.564   1.550 -0.2003  0.2442 -0.0146
    1W        W33772   7.021  24.074   7.026  0.3914  0.1287  0.4528
    1W        W33773  29.396   9.566   6.324  0.0157 -0.0930  0.0405
    1W        W33774  28.021  15.572   6.773 -0.1838 -0.0040  0.1909
    1W        W33775  28.322  18.429   2.277  0.0398 -0.2289 -0.3329
    1W        W33776   7.567  19.466   0.300  0.0326 -0.2174 -0.1277
    1W        W33777   5.952   3.175   9.196  0.0731 -0.0161  0.0293
    1W        W33778   6.452  13.047   8.769  0.1573 -0.1349  0.0168
    1W        W33779  26.732   5.414   1.308 -0.2299 -0.1977  0.0089
    1W        W33780   9.107   6.156   6.590  0.1886  0.3951  0.0962
    1W        W33781  26.691   8.372   9.208  0.2529 -0.5077  0.1440
    1W        W33782   4.502  18.027   1.193 -0.0416  0.1531 -0.1348
    1W        W33783   0.081  19.470   0.673 -0.1313 -0.2029 -0.1216
    1W        W33784   6.596   8.573   3.174 -0.1021  0.1415 -0.0403
    1W        W33785   4.909   0.901   7.663  0.1354  0.3227  0.0083
    1W        W33786  23.122   8.219   9.406  0.1626 -0.0365 -0.0545
    1W        W33787  18.002  18.831   9.451 -0.1107  0.0452  0.2997
    1W        W33788  20.997   4.784   7.377  0.1234 -0.0275 -0.0476
    1W        W33789   5.260  20.189   1.694  0.2325 -0.1557  0.0807
    1W        W33790  29.135  13.092   9.385  0.0939 -0.0168  0.1653
    1W        W33791   8.937  10.648   8.066  0.2829 -0.2357  0.1782
    1W        W33792   2.550  13.196   9.141  0.0282  0.1143  0.0241
    1W        W33793  15.063  19.577   7.398  0.0372  0.1270 -0.1335
    1W        W33794   0.210  22.293   7.288 -0.1375 -0.3986  0.4062
    1W        W33795  10.896   2.711   7.545  0.3802  0.0586 -0.0736
    1W        W33796   4.506   9.177   8.538  0.4420  0.0658 -0.1285
    1W        W33797  20.492  12.341   6.095 -0.0786  0.0304 -0.2542
    1W        W33798  14.080   3.252   8.330 -0.0647 -0.0794  0.0305
    1W        W33799  14.418   7.741   8.621  0.1248  0.4246  0.1191
    1W        W33800  15.840   6.085   6.185 -0.0940 -0.0074  0.2220
    1W        W33801  13.169  15.542   8.988  0.0772  0.1087  0.3440
    1W        W33802   3.926  23.564   1.353 -0.0419  0.0957 -0.0344
    1W        W33803  27.724  18.329   7.186  0.1834 -0.1197 -0.3449
    1W        W33804   7.840   7.224   0.526  0.1097 -0.2129  0.1816
    1W        W33805  19.822   1.484   8.284  0.1630 -0.0359 -0.1921
    1W        W33806   9.257   1.949   0.142 -0.3091  0.0152  0.2522
    1W        W33807   3.729  14.431   8.758 -0.4153  0.1802  0.0520
    1W        W33808  14.394  28.730   3.311 -0.0171 -0.3739 -0.1724
    1W        W33809  18.320  15.648   7.846 -0.0160  0.0342  0.0347
    1W        W33810   5.589   7.206   2.086 -0.1378 -0.1180 -0.0789
    1W        W33811   6.004   0.501   8.681  0.3703 -0.0758  0.0735
    1W        W33812  20.937  23.588   0.993 -0.1709 -0.0491 -0.1585
    1W        W33813  23.989   1.068   2.713  0.1508 -0.0174 -0.1021
    1W        W33814  19.708  11.094   8.716  0.0078 -0.2569 -0.2619
    1W        W33815  28.269   9.680   0.487 -0.5086  0.2584 -0.1542
    1W        W33816  26.309  13.138   8.212  0.1139  0.2010  0.2412
    1W        W33817   0.177   0.530   2.235 -0.2528 -0.0657  0.0329
    1W        W33818   8.346  15.390   6.858  0.0089  0.1739  0.2624
    1W        W33819  21.502  19.708   1.726 -0.0041 -0.0404 -0.1149
    1W        W33820  23.967  21.589   2.308 -0.0453 -0.2483 -0.3202
    1W        W33821   8.609   9.575   2.326 -0.0833 -0.1053 -0.1642
    1W        W33822  18.802  24.624   0.680 -0.0556  0.0604 -0.4296
    1W        W33823   9.452   1.725   9.179  0.0550  0.3895 -0.0294
    1W        W33824   9.276  12.711   7.592  0.0469  0.0344 -0.1020
    1W        W33825  10.226   7.321   7.375 -0.0524 -0.1276 -0.1331
    1W        W33826   3.456  24.775   8.558  0.0509  0.2643 -0.1792
    1W        W33827   9.657  17.864   7.147  0.0306 -0.1325 -0.1005
    1W        W33828  14.110   1.610   2.282  0.1620 -0.1327  0.0539
    1W        W33829  15.869  24.915   6.617 -0.1313  0.1908 -0.1902
    1W        W33830  25.077   4.360   1.502 -0.2737  0.0091  0.2426
    1W        W33831  25.048  15.541   0.676  0.0069  0.0995 -0.0341
    1W        W33832  26.410  14.746   7.409  0.0229  0.2369 -0.0365
    1W        W33833  23.025  22.147   7.620 -0.1148 -0.1444 -0.0623
    1W        W33834   5.321  14.856   8.693  0.0274  0.1873 -0.5405
    1W        W33835   3.043  24.755   1.746 -0.0392 -0.1668  0.3605
    1W        W33836  10.920   6.528   9.343 -0.1028 -0.0654 -0.0141
    1W        W33837   3.771  12.288   2.226 -0.1556  0.0988 -0.1330
    1W        W33838   6.626   2.289   3.625 -0.1915  0.1997  0.0631
    1W        W33839  24.785   1.022   8.737  0.2960  0.3356  0.0718
    1W        W33840  29.056   0.459   0.743 -0.0501 -0.0360  0.0619
    1W        W33841  19.510   7.097   7.888 -0.2463  0.3013 -0.0283
    1W        W33842   5.902   4.865   7.756  0.2672 -0.0118  0.0459
    1W        W33843   1.673   5.489   0.093  0.2407  0.1602 -0.2953
    1W        W33844  28.830  15.126   1.008  0.0089  0.1059  0.0493
    1W        W33845   4.930   6.965   7.189 -0.0336  0.0884 -0.3783
    1W        W33846  29.431  24.144   0.137 -0.0882  0.0911 -0.1566
    1W        W33847  25.566  15.692   7.903 -0.1229 -0.1712  0.0566
    1W        W33848  24.495   6.495   0.617  0.1339  0.0167  0.0238
    1W        W33849  20.294  18.081   0.943 -0.2583  0.0155 -0.0448
    1W        W33850   6.483  21.678   6.588 -0.3176  0.0803 -0.0463
    1W        W33851  13.258   3.299   8.781 -0.0077 -0.1703 -0.1657
    1W        W33852  15.947  14.911   0.643 -0.2674 -0.1197 -0.0044
    1W        W33853  17.218  22.497   0.339  0.2074  0.2212 -0.0856
    1W        W33854   4.454   9.339   1.786 -0.3808 -0.2152 -0.1201
    1W        W33855   3.072  19.942   3.006  0.0181 -0.0730 -0.0125
    1W        W33856  23.015   2.967   2.305  0.0919 -0.0888 -0.0169
    1W        W33857  12.553  26.411   3.132  0.2028  0.0700 -0.0002
    1W        W33858   0.777  15.941   6.294 -0.1727 -0.1246 -0.1787
    1W        W33859  21.691  13.865   1.736  0.0939 -0.1496  0.0463
    1W        W33860  13.173  17.910   7.176 -0.3685  0.1288  0.3001
    1W        W33861  21.251  25.051   1.743  0.0864  0.3189 -0.0962
    1W        W33862  22.536   2.164   1.042  0.1825  0.1930  0.2905
    1W        W33863  16.065  29.078   7.946  0.0578 -0.1239 -0.2211
    1W        W33864  14.738  20.826   8.512  0.0810  0.0572 -0.1088
    1W        W33865  15.016  19.287   7.789 -0.4250  0.1268  0.1185
    1W        W33866   1.706  23.450   6.748 -0.0960 -0.1154 -0.1468
    1W        W33867  21.594  29.785   8.332 -0.0721 -0.0357  0.1828
    1W        W33868  12.230  28.229   2.484  0.1836 -0.1724 -0.0989
    1W        W33869  20.110  11.184   0.759 -0.1340  0.1116 -0.0918
    1W        W33870   0.554  11.935   6.479  0.2827  0.0057  0.0149
    1W        W33871   7.917   7.771   7.255  0.2941 -0.1531  0.4186
    1W        W33872  29.741   5.466   7.421  0.0769 -0.1364  0.2420
    1W        W33873   3.402  28.546   0.513  0.0172 -0.2152 -0.2440
    1W        W33874   0.815   6.691   1.957 -0.0065  0.0884 -0.2119
    1W        W33875  26.243  10.280   6.634 -0.0032  0.0429 -0.4488
    1W        W33876   7.006  21.461   5.776 -0.1088 -0.1404 -0.0171
    1W        W33877   1.609  25.942   7.110  0.0069 -0.0273  0.0537
    1W        W33878  20.881  21.440   7.390 -0.0359  0.0750  0.0515
    1W        W33879  20.963  18.234   6.816  0.2202 -0.1919 -0.1820
    1W        W33880  12.994  25.798   6.649 -0.2233 -0.0970  0.1930
    1W        W33881  27.483   3.269   6.951 -0.0203 -0.1066  0.0425
    1W        W33882   7.341   2.127   8.102  0.2352 -0.3041  0.4399
    1W        W33883   5.593  22.379   8.384 -0.4026 -0.1507 -0.2578
    1W        W33884   4.347   1.002   1.534 -0.1461  0.1801  0.1823
    1W        W33885  28.222  16.449   6.631  0.0335  0.0261 -0.0840
    1W        W33886   3.716   2.141   2.255  0.1669  0.0542  0.0691
    1W        W33887   8.017  26.086   7.349  0.1869  0.1868  0.0279
    1W        W33888  11.830   7.267   1.776 -0.0319  0.2179 -0.0336
    1W        W33889   4.484  14.870   7.588  0.0584 -0.0380  0.2975
    1W        W33890  14.666  11.339   8.998 -0.2152  0.0867  0.1952
    1W        W33891  11.934  29.749   8.993 -0.3708 -0.0345 -0.1396
    1W        W33892  20.313   9.389   0.119  0.0998  0.0476 -0.0947
    1W        W33893   0.407  21.065   6.562 -0.0720 -0.1633 -0.3252
    1W        W33894  12.228  27.857   1.081 -0.1139  0.0076 -0.0816
    1W        W33895  28.060  25.423   0.111 -0.2147  0.0454 -0.2989
    1W        W33896   4.507   3.318   2.130  0.0690  0.0351  0.1134
    1W        W33897  12.939   2.287   3.033 -0.2243  0.0665 -0.3741
    1W        W33898  20.607  16.687   8.040 -0.1430 -0.0329 -0.0362
    1W        W33899   6.441   6.544   1.349 -0.1350  0.1345 -0.1967
    1W        W33900  17.648   8.733   8.544  0.1207 -0.3156  0.0221
    1W        W33901  22.605  16.599   7.004  0.1177 -0.0011  0.0939
    1W        W33902  16.008   9.972   2.556 -0.1628  0.2979  0.0503
    1W        W33903  16.084   6.415   0.203  0.3190 -0.0965  0.1211
    1W        W33904  10.786  27.905   9.387  0.5538  0.0760 -0.0591
    1W        W33905  21.315  29.414   8.732 -0.1407  0.1527  0.2588
    1W        W33906   2.065  10.360   6.053 -0.0186 -0.1070  0.1284
    1W        W33907  12.200  23.772   0.991 -0.1783  0.0237 -0.2873
    1W        W33908   0.590   6.434   6.969  0.0764 -0.1601 -0.0572
    1W        W33909   5.317  24.307   7.705 -0.1718  0.0067  0.3026
    1W        W33910  13.287   8.456   8.993 -0.0063 -0.5112  0.1676
    1W        W33911  10.565  20.449   0.709  0.0391 -0.1631  0.0472
    1W        W33912   3.852  24.665   1.745 -0.2059  0.2593  0.0786
    1W        W33913   4.889  28.585   9.129  0.2729  0.0757 -0.0861
    1W        W33914  27.914   9.908   0.750 -0.0415 -0.0609 -0.0388
    1W        W33915   4.194   3.081   6.455 -0.0715  0.2504 -0.1468
    1W        W33916   3.012   4.594   3.770  0.1988 -0.1341 -0.0238
    1W        W33917   8.738  26.627   2.519  0.0467 -0.0293 -0.0023
    1W        W33918  21.061  17.322   6.678 -0.4490 -0.1277 -0.1982
    1W        W33919  28.299  11.644   9.049  0.1856  0.3609 -0.0464
    1W        W33920  14.606  27.878   7.209  0.0621 -0.1891 -0.1956
    1W        W33921  25.172  27.527   8.954 -0.0072  0.1300 -0.1239
    1W        W33922   4.825  13.081   6.918 -0.2059 -0.0023 -0.2922
    1W        W33923   7.465  21.769   5.912  0.3083 -0.0983 -0.0963
    1W        W33924   4.226   1.214   3.698  0.1301 -0.4076  0.1445
    1W        W33925  19.068  23.438   1.364 -0.1242 -0.1294 -0.0193
    1W        W33926   7.053  16.843   0.376  0.0515 -0.1597 -0.1917
    1W        W33927  27.817  10.522   0.993 -0.0463  0.0971  0.0618
    1W        W33928  15.542   7.623   2.227  0.0280  0.0059  0.0952
    1W        W33929   9.636   4.635   7.235  0.1854 -0.1247  0.2708
    1W        W33930  27.871  24.422   2.179  0.1033  0.0319  0.1020
    1W        W33931   2.296  24.776   8.294  0.2432  0.4728 -0.0035
    1W        W33932  23.183  24.466   7.831  0.1132 -0.1958  0.4524
    1W        W33933  16.860  18.365   2.162  0.1007  0.1686 -0.1362
    1W        W33934  19.526  26.495   2.463  0.3116  0.0239  0.3434
    1W        W33935  26.654   8.960   6.643  0.1180  0.1264  0.3037
    1W        W33936   4.827  28.689   7.973 -0.1572 -0.0178 -0.1990
    1W        W33937   5.171  24.753   7.635 -0.0985 -0.0424 -0.2508
    1W        W33938  24.422   0.573   1.835  0.0751 -0.0353  0.2749
    1W        W33939   7.229  28.173   2.201 -0.0347 -0.1498  0.0779
    1W        W33940  15.327  26.565   7.681  0.2256 -0.0886 -0.0248
    1W        W33941   1.155   7.815   8.749 -0.0334 -0.2512 -0.1577
    1W        W33942   8.182  10.527   1.105  0.0846 -0.2563 -0.0644
    1W        W33943   4.478  21.404   9.151 -0.0358 -0.2017  0.0870
    1W        W33944  15.415  17.972   0.394 -0.1520 -0.3386 -0.0035
    1W        W33945  14.275  19.232   9.175  0.0222  0.0449 -0.1469
    1W        W33946  13.454  12.837   0.778 -0.0529  0.1521 -0.2479
    1W        W33947  15.382   5.545   7.117  0.2295 -0.1438 -0.0683
    1W        W33948   2.962  13.850   9.255 -0.2490  0.1113  0.0451
    1W        W33949  11.084  24.032   8.048  0.0483  0.0366  0.0523
    1W        W33950   8.579   8.923   0.231  0.1333  0.0257  0.0869
    1W        W33951   5.926  21.781   6.670 -0.1448 -0.1576  0.0658
    1W        W33952  25.616  25.343   6.823  0.1355  0.3713  0.4058
    1W        W33953   8.016   7.319   6.929 -0.1782 -0.3685  0.2780
    1W        W33954   1.603   2.990   1.418 -0.0317  0.0103  0.3053
    1W        W33955   7.261   6.368   8.525 -0.0261 -0.0170  0.5984
    1W        W33956   1.918  10.069   1.732  0.3807 -0.3090 -0.0312
    1W        W33957  21.363  11.632   1.543  0.1185 -0.0006  0.0019
    1W        W33958  24.120  13.191   2.421 -0.0784  0.2353 -0.1924
    1W        W33959  14.805  13.953   8.393 -0.3603  0.2225 -0.3094
    1W        W33960   9.880  25.713   8.769 -0.1542 -0.2324 -0.0426
    1W        W33961  21.716  10.630   8.445 -0.1656  0.0297  0.1535
    1W        W33962  27.841   7.066   8.416  0.1847 -0.0669 -0.0073
    1W        W33963  27.728  17.760   1.514  0.1243  0.1939 -0.2036
    1W        W33964  21.998   0.562   2.331  0.1750  0.0616 -0.1866
    1W        W33965   5.398  10.109   8.046 -0.1644 -0.0429 -0.0558
    1W        W33966   3.507   4.050   0.799 -0.1739  0.0784  0.3333
    1W        W33967   1.365  28.993   0.305  0.1012 -0.0428 -0.2318
    1W        W33968   4.691  21.463   8.716 -0.0078 -0.1167  0.0925
    1W        W33969  13.211  23.224   1.049  0.4330  0.1043 -0.1180
    1W        W33970   9.335  23.971   1.154 -0.0716  0.1408 -0.1226
    1W        W33971  25.664   4.178   9.085  0.1606  0.0321  0.3301
    1W        W33972  20.024   8.658   0.713 -0.1200 -0.0176  0.2351
    1W        W33973  13.671  10.985   8.088 -0.0923  0.1103 -0.0486
    1W        W33974  21.379   9.333   1.514  0.2871  0.1347  0.0536
    1W        W33975   1.313  23.979   1.996 -0.1043 -0.0484  0.2504
    1W        W33976  28.506  16.875   6.853  0.2069 -0.0184 -0.0177
    1W        W33977  21.859   0.901   8.220  0.3224  0.1676 -0.0407
    1W        W33978  23.508   6.488   1.354 -0.2500  0.1500 -0.2114
    1W        W33979  11.279   7.454   2.071 -0.1189 -0.0007  0.2883
    1W        W33980   9.118   5.933   2.663  0.0186  0.0315  0.2941
    1W        W33981  11.501   3.780   3.091  0.1501  0.1432 -0.0857
    1W        W33982   5.314  21.821   2.464 -0.1074  0.0824  0.0079
    1W        W33983  18.366  22.220   2.780  0.0108  0.1399 -0.2358
    1W        W33984  29.580   1.952   6.657 -0.1696  0.0115  0.2876
    1W        W33985  20.718  13.443   0.738  0.4409  0.1837 -0.2207
    1W        W33986  29.662  13.387   6.641 -0.0007  0.3234  0.1947
    1W        W33987  19.426  19.438   7.638 -0.0686  0.0655  0.1918
    1W        W33988   3.894   4.484   7.707 -0.1413 -0.0313 -0.0379
    1W        W33989   2.798   0.361   3.058  0.0212  0.1005  0.0775
    1W        W33990   8.878  20.074   7.059  0.2511 -0.3195  0.0875
    1W        W33991   1.161   8.606   7.567 -0.0870  0.3053 -0.1920
    1W        W33992   1.930  20.954   1.851 -0.1866  0.1719 -0.1311
    1W        W33993   5.358  12.990   2.463 -0.1777 -0.0465 -0.1602
    1W        W33994   0.224  12.016   0.956 -0.2370 -0.1089 -0.1963
    1W        W33995   8.865  12.923   7.717 -0.0354 -0.1637  0.0128
    1W        W33996  27.257  18.554   8.931 -0.2591 -0.2515 -0.2026
    1W        W33997  25.044   0.955   8.289 -0.2287  0.1568  0.1137
    1W        W33998  11.268   1.696   0.050 -0.0788  0.1822 -0.0268
    1W        W33999   1.334  16.190   0.815  0.1340 -0.3455 -0.3137
    1W        W34000  18.377  26.824   1.312  0.1231  0.2837  0.0098
    1W        W34001  26.741  25.709   3.178  0.0955 -0.0334 -0.1993
    1W        W34002   8.571   4.415   7.863  0.3786 -0.0716  0.1951
    1W        W34003  12.412  10.266   1.177  0.0882 -0.3052 -0.1160
    1W        W34004  17.448  13.216   0.343 -0.0934 -0.0717 -0.0658
    1W        W34005  25.627  16.686   8.134  0.2982  0.2826 -0.2791
    1W        W34006   9.698  11.022   7.775 -0.0414  0.0006  0.0221
    1W        W34007  14.315   9.041   8.785  0.2450 -0.0009  0.1500
    1W        W34008   4.762   9.873   8.652 -0.1487  0.2298  0.2125
    1W        W34009   3.182   4.350   1.567 -0.0562  0.1293  0.0220
    1W        W34010   2.001  17.844   9.112 -0.2170 -0.1578 -0.0467
    1W        W34011  21.766  25.671   0.195  0.1130 -0.0197 -0.1929
    1W        W34012  19.701  11.520   0.661  0.2020  0.1038  0.2188
    1W        W34013  22.273  29.372   8.901 -0.0677 -0.0069 -0.2343
    1W        W34014  12.964   0.962   7.266 -0.0505 -0.0748 -0.1065
    1W        W34015  24.068  21.768   1.802 -0.1243  0.2554  0.1420
    1W        W34016  27.978   0.336   0.072  0.2185 -0.1208 -0.2730
    1W        W34017   2.240  19.054   0.152  0.0671 -0.0303 -0.1092
    1W        W34018   1.633   4.830   0.568  0.1762  0.3484 -0.1492
    1W        W34019  23.910  13.107   1.962 -0.0486  0.1115 -0.1575
    1W        W34020   4.234  13.908   7.542 -0.1602  0.1257 -0.0232
    1W        W34021  18.828  15.209   6.611 -0.2942  0.2418 -0.0395
    1W        W34022   2.056   3.832   7.390  0.1759  0.0366  0.1241
    1W        W34023  12.042  16.703   8.091 -0.1002  0.0883  0.1572
    1W        W34024   1.804   2.905   8.161  0.0766  0.1773  0.0877
    1W        W34025  11.134   8.366   0.612  0.0748  0.4185  0.2208
    1W        W34026  16.217  10.676   0.275  0.1893  0.2759 -0.0944
    1W        W34027   8.080  14.730   9.031  0.1055  0.4124 -0.0435
    1W        W34028  29.452   2.192   2.680  0.2022  0.1495 -0.4211
    1W        W34029  16.695  12.760   1.684  0.0842 -0.0130  0.3326
    1W        W34030   1.345  11.993   1.435 -0.1817 -0.1561 -0.1122
    1W        W34031  17.797  24.508   9.052  0.0853  0.0377 -0.1681
    1W        W34032  24.747  14.694   8.831  0.0039 -0.4304 -0.1896
    1W        W34033  28.246   8.458   1.174 -0.2153  0.0695 -0.3147
    1W        W34034  28.899   8.082   6.769 -0.0938 -0.1471 -0.0193
    1W        W34035   4.612  16.223   8.432 -0.2420  0.1781  0.1693
    1W        W34036  18.141   8.268   0.004  0.1960  0.2262 -0.1834
    1W        W34037   7.438   4.612   2.526  0.0587 -0.1544 -0.3894
    1W        W34038  13.195   1.246   3.643  0.0924 -0.1191  0.3563
    1W        W34039  18.744   0.413   6.777 -0.0190 -0.1850  0.3117
    1W        W34040  13.376  25.891   8.993  0.1894 -0.3322 -0.2941
    1W        W34041  22.613  16.775   1.545  0.3631  0.0254 -0.1064
    1W        W34042   0.009  21.004   6.826 -0.3020 -0.0551 -0.0765
    1W        W34043  25.333  22.108   7.422  0.0520 -0.1351 -0.0358
    1W        W34044  12.161   4.702   8.575  0.2618  0.0134 -0.1178
    1W        W34045  14.500  17.349   8.259 -0.2624  0.1940  0.0738
    1W        W34046  28.309   2.310   1.408  0.0533 -0.1560 -0.1167
    1W        W34047   4.775  17.148   7.006  0.0025  0.1336  0.0057
    1W        W34048  19.523  19.819   6.706  0.1389 -0.1355  0.0511
    1W        W34049   5.905  24.633   0.752 -0.1438 -0.0340 -0.3682
    1W        W34050  19.033  26.035   0.274 -0.3151  0.2494  0.2012
    1W        W34051  28.138  28.879   7.037 -0.1096 -0.0936 -0.1831
    1W        W34052   4.952   1.472   7.629 -0.1325 -0.2756 -0.1461
    1W        W34053   8.352   4.007   1.274 -0.0070  0.1515  0.1382
    1W        W34054  22.910   5.996   1.475  0.3780  0.1654 -0.0060
    1W        W34055  27.098  13.233   0.577 -0.2788 -0.4899  0.1709
    1W        W34056   6.113   6.228   7.452  0.3297 -0.1757 -0.0628
    1W        W34057  18.106   0.909   0.443 -0.0652 -0.4559  0.3488
    1W        W34058  23.577  22.639   0.809 -0.0730  0.0730  0.1468
    1W        W34059  22.082  29.674   0.474  0.3267 -0.2980  0.1127
    1W        W34060  20.031  11.488   6.040  0.1436  0.1070 -0.0955
    1W        W34061   5.042  21.825   1.344  0.1258  0.1709  0.4917
    1W        W34062   8.206   4.441   9.038 -0.1463 -0.0033  0.0112
    1W        W34063  13.257   9.084   9.017 -0.0072 -0.0708 -0.1392
    1W        W34064  27.864  22.500   7.188  0.0734  0.3413 -0.0312
    1W        W34065  19.818  11.377   7.994  0.0872 -0.1116 -0.0106
    1W        W34066  18.625  28.649   7.377  0.1674 -0.0459 -0.2640
    1W        W34067  10.548  14.213   1.661 -0.0350 -0.0097  0.0268
    1W        W34068   7.133   4.458   0.267  0.1788  0.1468  0.0074
    1W        W34069  23.470  23.190   2.825  0.0646  0.4492 -0.2719
    1W        W34070   1.338   0.925   0.370 -0.0211  0.0375  0.0255
    1W        W34071   1.062  14.185   7.615 -0.0754  0.2743  0.1383
    1W        W34072   5.003  15.591   2.641 -0.1721  0.0600 -0.2085
    1W        W34073   3.940  16.637   6.835  0.2314  0.1423  0.0858
    1W        W34074  26.571  16.373   0.766 -0.1192  0.0766 -0.0458
    1W        W34075  18.573   8.155   1.311  0.0421 -0.2913  0.1371
    1W        W34076  29.392   9.427   1.123 -0.1711  0.3558  0.0690
    1W        W34077   1.062   9.429   0.019 -0.1501  0.1404 -0.0529
    1W        W34078   0.270  14.370   9.226  0.3708 -0.2037  0.0484
    1W        W34079  20.550   1.120   7.964  0.1847 -0.2487 -0.0598
    1W        W34080  28.693   6.119   8.924  0.0234  0.1187 -0.4287
    1W        W34081  16.782  14.843   6.992 -0.1678  0.1432 -0.0272
    1W        W34082  12.520   6.503   1.495  0.0615  0.0539  0.0240
    1W        W34083   1.527  29.655   0.933 -0.1032 -0.2054 -0.1646
    1W        W34084  23.823  10.050   8.688 -0.1785 -0.1909  0.0232
    1W        W34085  10.241  15.178   1.250  0.2430  0.0800 -0.1542
    1W        W34086  13.232  14.128   8.208 -0.2608  0.0825  0.1719
    1W        W34087  28.960   8.650   6.754 -0.0678  0.2765  0.1051
    1W        W34088  22.353   2.059   2.814  0.1940  0.1207  0.0929
    1W        W34089  29.291  15.235   6.593 -0.0241 -0.2320  0.1031
    1W        W34090   6.960  14.841   7.090  0.0350 -0.2330  0.1059
    1W        W34091  20.709   5.667   8.756  0.1264 -0.0245 -0.0711
    1W        W34092  24.041  20.074   8.416  0.3114 -0.2539 -0.0669
    1W        W34093   6.854  22.764   8.407 -0.3078  0.0485 -0.0350
    1W        W34094  10.005  11.880   2.223 -0.1994  0.1127  0.1242
    1W        W34095  11.786  27.307   2.742 -0.0161  0.0067 -0.0738
    1W        W34096  25.084  22.471   7.873 -0.0165 -0.1973  0.0522
    1W        W34097  21.194  23.706   2.126  0.0787  0.3344 -0.2415
    1W        W34098   0.785   2.908   8.179 -0.0325  0.3104  0.0143
    1W        W34099  28.904   6.598   2.591 -0.3462  0.0930  0.0339
    1W        W34100  25.125   0.950   7.210 -0.2342 -0.1048 -0.0645
    1W        W34101   0.982   2.316   1.713  0.0533 -0.0104  0.2414
    1W        W34102  28.091  28.352   3.041  0.1985  0.4067 -0.1380
    1W        W34103  16.888  18.983   7.312 -0.2844 -0.3701 -0.1939
    1W        W34104   5.591   1.682   7.305  0.0200  0.2026 -0.0926
    1W        W34105   1.805  25.760   6.255  0.0137  0.0212  0.0739
    1W        W34106  12.440  15.267   1.867 -0.0861 -0.3363  0.1226
    1W        W34107  23.791  25.707   1.039 -0.1178 -0.1147  0.1687
    1W        W34108  12.706   5.080   1.482  0.3211  0.0031  0.0732
    1W        W34109   1.979  27.743   8.120 -0.2243  0.1589  0.2631
    1W        W34110   5.824  14.705   0.659 -0.1600 -0.3066 -0.3406
    1W        W34111  15.982  19.628   8.773 -0.1887  0.0308 -0.2762
    1W        W34112  11.091   6.038   8.211 -0.2229  0.0414  0.0845
    1W        W34113  27.249   6.250   8.066  0.1993 -0.1010 -0.1247
    1W        W34114   1.333   1.835   0.960 -0.0706 -0.0789 -0.0176
    1W        W34115  11.200   3.395   8.853 -0.0894  0.0503 -0.1039
    1W        W34116   5.686  14.789   6.079  0.1311 -0.0767 -0.1012
    1W        W34117  26.651   4.795   8.829 -0.1446 -0.0199  0.1846
    1W        W34118   6.669  12.832   3.049 -0.0159  0.1203  0.0111
    1W        W34119  28.154  14.256   7.112 -0.1832  0.2368  0.0848
    1W        W34120   1.624  27.051   9.245  0.1391 -0.0347  0.3170
    1W        W34121  29.668   8.388   3.201 -0.2939 -0.0568 -0.0777
    1W        W34122  25.765  26.063   2.705 -0.0493 -0.1569  0.2697
    1W        W34123  26.206  10.581   8.360 -0.0584 -0.0478 -0.0280
    1W        W34124  18.164  18.818   0.877 -0.0566  0.4200 -0.4815
    1W        W34125  28.659  20.711   7.477  0.0482 -0.1652 -0.0068
    1W        W34126  29.082  15.950   0.273  0.0567  0.1735 -0.2280
    1W        W34127  16.951  12.615   8.285 -0.2382 -0.0893 -0.0357
    1W        W34128  26.289   7.995   7.484 -0.0886  0.1425 -0.1844
    1W        W34129  23.962   2.206   7.793  0.0844  0.2154  0.2679
    1W        W34130  21.962  21.664   2.434 -0.1861  0.0994 -0.1872
    1W        W34131   6.751   3.707   1.674  0.1174  0.1291 -0.1459
    1W        W34132   7.643  26.854   7.238  0.2358  0.2445  0.0649
    1W        W34133   7.718  23.559   1.692 -0.1147  0.0434  0.0908
    1W        W34134  11.008   0.154   1.947 -0.2770 -0.1122  0.1812
    1W        W34135  28.063  17.018   6.738 -0.0329  0.2968 -0.0241
    1W        W34136  22.661  24.533   6.628 -0.1957  0.1159 -0.0703
    1W        W34137  25.130  10.109   7.764  0.5591  0.0900  0.0320
    1W        W34138   3.853  15.247   6.377  0.3331 -0.1521 -0.0167
    1W        W34139  20.539  16.272   1.512 -0.0326  0.0323  0.2798
    1W        W34140   1.825  22.332   0.970  0.2268 -0.3019 -0.0373
    1W        W34141   8.986  16.278   1.051  0.1272  0.0171  0.2673
    1W        W34142   0.185   5.454   1.523  0.0693  0.1490 -0.3108
    1W        W34143   8.953   3.272   7.322 -0.3806  0.0480 -0.2367
    1W        W34144  24.931  14.437   9.189 -0.2106 -0.1740  0.0630
    1W        W34145   8.911   5.179   2.135 -0.0732  0.2004  0.2035
    1W        W34146  20.890   0.015   7.771  0.2780  0.0309  0.1779
    1W        W34147  26.104   6.109   1.055  0.0700 -0.1917 -0.1681
    1W        W34148  18.007  29.513   7.211  0.1161  0.0627 -0.2017
    1W        W34149   9.062  28.265   6.764 -0.1885 -0.1278 -0.1006
    1W        W34150   9.581  21.213   1.570 -0.1305  0.0960 -0.1995
    1W        W34151   1.669  19.553   7.382 -0.1682 -0.0500 -0.0864
    1W        W34152  18.697   3.536   5.922 -0.1276  0.0244 -0.0286
    1W        W34153   8.362  18.957   0.376  0.2409  0.0123 -0.0281
    1W        W34154  25.860  13.241   1.050 -0.2257  0.2961  0.3229
    1W        W34155   0.090   0.745   1.682  0.2533 -0.0746 -0.2120
    1W        W34156  17.760  28.838   2.515  0.0859 -0.0497  0.0977
    1W        W34157   9.908  15.786   7.526 -0.1547 -0.1081  0.0404
    1W        W34158  18.148   8.610   2.340 -0.0863  0.0333 -0.2772
    1W        W34159  22.275   3.899   6.209  0.2396  0.2329  0.1433
    1W        W34160  17.592  22.768   7.048 -0.0582 -0.1253 -0.1362
    1W        W34161   1.658  28.142   8.110 -0.2711 -0.2887 -0.1212
    1W        W34162  13.255  21.860   8.917  0.1450  0.0086 -0.1094
    1W        W34163  19.771  22.109   7.644 -0.0938  0.1337 -0.2661
    1W        W34164  11.398  11.395   2.074 -0.2277 -0.1343  0.1115
    1W        W34165  24.342  19.001   8.836 -0.0649  0.1331  0.1925
    1W        W34166  12.300  12.515   7.472  0.4280  0.1901  0.1267
    1W        W34167  22.180   5.357   0.264 -0.0674  0.0902  0.0361
    1W        W34168  18.555   6.653   6.932 -0.2212  0.0563 -0.0294
    1W        W34169  16.956   9.885   8.601  0.0681  0.2556 -0.0791
    1W        W34170   0.533  28.445   1.543  0.0078 -0.0071 -0.1003
    1W        W34171  21.838  16.593   6.956  0.0570 -0.1359  0.0793
    1W        W34172  27.301   0.016   8.969 -0.0856 -0.0922  0.0021
    1W        W34173   6.309  27.817   7.977  0.1056 -0.0590 -0.2730
    1W        W34174  25.313   7.486   0.359 -0.2167 -0.2837  0.2963
    1W        W34175   8.067  12.061   0.769 -0.3135  0.0663 -0.0613
    1W        W34176  27.406  17.231   8.469  0.0594  0.0898  0.0743
    1W        W34177  14.346  28.269   2.033 -0.1286 -0.0225 -0.0416
    1W        W34178  22.242  14.791   8.280 -0.3131 -0.1379  0.0508
    1W        W34179   7.654  12.891   0.982  0.0320 -0.4146  0.0177
    1W        W34180  21.608  27.186   2.660  0.1001 -0.0456  0.0233
    1W        W34181  24.275  23.316   8.026 -0.0957 -0.1707  0.1371
    1W        W34182  19.612   1.810   9.288  0.4357  0.2188  0.0679
    1W        W34183  20.110  24.633   0.258  0.2825  0.3417 -0.1089
    1W        W34184  23.064  17.782   6.566  0.1711  0.1349  0.2327
    1W        W34185  18.907  18.958   8.991  0.3831 -0.0482  0.0470
    1W        W34186  20.023  21.326   1.096 -0.2415  0.1480 -0.2068
    1W        W34187  19.523   6.362   2.557 -0.1319 -0.4163  0.0263
    1W        W34188   7.807  21.081   8.058 -0.0093 -0.0252  0.2892
    1W        W34189   1.839   4.609   2.038 -0.0805  0.2025 -0.1167
    1W        W34190  27.348   2.714   3.198  0.0417  0.0511 -0.0502
    1W        W34191   8.086   6.047   2.755 -0.0044 -0.2506 -0.1062
    1W        W34192  29.614   9.444   8.698 -0.0603 -0.0698 -0.1233
    1W        W34193  19.253  18.889   8.205  0.1369 -0.0311 -0.1602
    1W        W34194  23.393   7.901   9.126 -0.0954 -0.0250  0.2663
    1W        W34195   4.186  23.075   6.383  0.0952  0.2293 -0.0740
    1W        W34196  29.494  15.240   7.467 -0.2816 -0.0266 -0.1804
    1W        W34197   4.212   3.300   2.471  0.1435  0.0645 -0.0675
    1W        W34198  17.176  21.649   0.628  0.0274  0.2408  0.1283
    1W        W34199   8.984  22.021   1.099  0.4794  0.1482  0.3162
    1W        W34200  21.633   6.926   1.933  0.0223 -0.0383  0.2095
    1W        W34201  21.670  20.800   8.435 -0.0931  0.1066 -0.1577
    1W        W34202  28.760  16.573   6.492 -0.1959 -0.1626 -0.0437
    1W        W34203  14.312  29.034   7.104  0.1524 -0.1543  0.1771
    1W        W34204   1.866  12.911   7.988 -0.2710  0.1158 -0.0269
    1W        W34205   9.631   1.578   7.713  0.3199  0.2394 -0.1541
    1W        W34206   3.181  17.982   5.957  0.2299  0.0099  0.1295
    1W        W34207  24.282   1.525   0.580 -0.1151  0.2458  0.2710
    1W        W34208  21.715  14.674   8.921  0.0717 -0.1760  0.2010
    1W        W34209   5.600  13.410   1.523  0.2563  0.1787  0.1357
    1W        W34210   4.732  12.514   2.798 -0.2199 -0.1554  0.2447
    1W        W34211   1.223   0.750   8.006  0.3422  0.2070 -0.1535
    1W        W34212  10.051  13.786   6.848  0.0597  0.0314 -0.1542
    1W        W34213   3.145  11.457   2.934  0.1051 -0.0354 -0.3762
    1W        W34214  27.778   7.333   0.021 -0.0611 -0.0317 -0.3840
    1W        W34215   4.388   0.097   1.847  0.1310 -0.0006  0.1858
    1W        W34216  21.117   6.657   0.986  0.2874  0.1143 -0.2400
    1W        W34217   0.240   8.905   0.421 -0.1085  0.1973  0.2570
    1W        W34218  12.987  13.532   2.730  0.3156 -0.1125  0.1192
    1W        W34219  25.512  29.020   2.780  0.1416  0.1789  0.1309
    1W        W34220  12.786   2.845   9.265  0.1684 -0.1950 -0.3670
    1W        W34221  23.176  24.134   1.273  0.2996 -0.3486 -0.0090
    1W        W34222  23.453   4.345   2.560 -0.1478  0.1546 -0.2682
    1W        W34223   7.971  27.874   2.568 -0.1018  0.1348 -0.1726
    1W        W34224  20.718   2.263   6.794  0.2992  0.3310  0.1901
    1W        W34225  26.121  12.798   0.182 -0.1138  0.0089 -0.0950
    1W        W34226   8.318  14.934   8.603 -0.1974 -0.2455 -0.0600
    1W        W34227  24.466  22.588   0.774 -0.4659  0.2372  0.0372
    1W        W34228   6.405  16.729   1.720  0.1468 -0.1116 -0.0107
    1W        W34229  23.940   8.170   8.860  0.2478 -0.2197 -0.2602
    1W        W34230  20.236  27.116   0.852 -0.2917 -0.0924 -0.0685
    1W        W34231  14.006  11.223   6.821 -0.1723  0.2375  0.1279
    1W        W34232  28.280  23.646   0.582 -0.1291 -0.1895  0.0191
    1W        W34233   7.256   2.685   2.505 -0.0105 -0.1883 -0.0180
    1W        W34234   9.556  25.376   9.421  0.1122 -0.0350  0.0461
    1W        W34235  13.588  15.341   2.552  0.1472 -0.1855  0.0968
    1W        W34236  16.190  16.052   7.453  0.2008  0.1167  0.0893
    1W        W34237  24.603   3.117   6.692 -0.1213 -0.0309  0.0618
    1W        W34238   6.977   7.120   3.091 -0.2211  0.1690  0.1182
    1W        W34239  10.672  10.598   1.959  0.0428  0.3538 -0.0877
    1W        W34240   9.972  17.550   1.332  0.0055 -0.0070 -0.3283
    1W        W34241  14.358   1.673   7.438  0.1829  0.1203 -0.2784
    1W        W34242  17.597  27.868   3.063 -0.1140 -0.0983  0.0794
    1W        W34243  28.762  14.631   0.896  0.0702  0.0838 -0.0314
    1W        W34244  21.864   8.730   0.361  0.0799 -0.0787 -0.0439
    1W        W34245   6.079  14.185   8.111  0.1137  0.1900 -0.0833
    1W        W34246  26.775  25.809   0.888  0.4488 -0.1044 -0.1515
    1W        W34247  10.834  13.502   7.963 -0.0587 -0.1799  0.0133
    1W        W34248  16.557  11.936   7.792  0.0570  0.1322  0.1035
    1W        W34249  22.718   7.176   9.407  0.3915 -0.0490 -0.2092
    1W        W34250  21.148  20.590   7.331 -0.0554 -0.3206 -0.0590
    1W        W34251  22.828  28.578   8.882  0.2796  0.0345  0.2141
    1W        W34252   8.753   7.852   2.945  0.1008 -0.0632  0.1698
    1W        W34253  21.988  16.022   7.687  0.5623 -0.0751 -0.0143
    1W        W34254  10.198   4.489   3.202 -0.0204  0.1430 -0.3447
    1W        W34255  27.183  21.853   5.939 -0.0038  0.0108  0.1121
    1W        W34256   8.275  14.805   1.482 -0.0888  0.3416  0.1808
    1W        W34257   7.594  19.248   1.049 -0.0711 -0.4865  0.1070
    1W        W34258  20.046   2.877   8.350 -0.4217 -0.1528 -0.0163
    1W        W34259   1.359  27.228   8.600 -0.0213  0.2430  0.3127
    1W        W34260   2.626  19.745   2.301  0.1427  0.0799 -0.1971
    1W        W34261   4.021   9.464   7.460  0.1821 -0.1006 -0.1205
    1W        W34262  11.801   2.455   8.054  0.0872 -0.0347  0.0938
    1W        W34263   6.747   2.847   0.838  0.0454  0.2213 -0.1608
    1W        W34264   0.600  13.670   7.093  0.2043  0.1562 -0.0306
    1W        W34265   8.709  13.902   0.021  0.3533  0.0575 -0.5119
    1W        W34266  27.369  26.673   0.205  0.2597  0.0667  0.1419
    1W        W34267   2.090  23.615   6.391  0.3397  0.1652 -0.0968
    1W        W34268  15.821   0.407   1.999 -0.3293  0.4212 -0.0119
    1W        W34269  28.819  15.058   0.416  0.3237  0.0609 -0.2817
    1W        W34270   8.262  21.248   7.866 -0.4869  0.1943 -0.0988
    1W        W34271   9.632  24.962   7.296 -0.1671 -0.0242 -0.0281
    1W        W34272  20.360  10.512   8.507 -0.4470  0.1066 -0.0564
    1W        W34273  18.690  15.949   0.244  0.0341 -0.2294  0.2794
    1W        W34274   6.146  10.110   8.160 -0.2506  0.3152 -0.0198
    1W        W34275   0.646  21.899   0.298 -0.1989 -0.0648 -0.1767
    1W        W34276  23.056  15.409   7.971 -0.1382  0.3936 -0.0312
    1W        W34277   8.592  23.928   2.137 -0.0262  0.0512 -0.2803
    1W        W34278  17.406  19.973   1.438 -0.0947  0.0698 -0.0602
    1W        W34279  26.849   1.924   6.230 -0.2012 -0.0311  0.4822
    1W        W34280  13.224   7.189   2.569  0.0984 -0.1370  0.1916
    1W        W34281  22.578  25.446   7.195 -0.0692 -0.0287  0.1679
    1W        W34282   3.055  15.088   8.945  0.0242  0.3393  0.1763
    1W        W34283  11.645  10.112   2.290  0.1420 -0.2513 -0.0106
    1W        W34284  21.469  19.488   8.883  0.0439  0.1713 -0.2647
    1W        W34285  21.553   7.750   2.447  0.0290  0.3208 -0.0541
    1W        W34286  24.463  15.278   7.805  0.0632  0.0877 -0.4677
    1W        W34287  13.759  16.403   6.870  0.0543 -0.0756  0.2057
    1W        W34288  29.341   4.893   0.259  0.2390  0.2429 -0.0601
    1W        W34289  23.481  25.946   2.699  0.3808  0.2846 -0.1840
    1W        W34290  16.891  22.348   7.634 -0.0764 -0.3456  0.3800
    1W        W34291   7.420  20.449   0.442 -0.0894  0.0957 -0.1052
    1W        W34292   4.545  13.752   9.044 -0.1780 -0.1683 -0.2370
    1W        W34293   8.468  26.255   7.111  0.0782  0.0105  0.2264
    1W        W34294  28.247  10.898   2.794  0.0384 -0.2370 -0.2654
    1W        W34295  28.926   3.764   2.429  0.0886  0.2701  0.1216
    1W        W34296  28.639  23.261   2.120  0.1844 -0.0228 -0.2989
    1W        W34297  13.943   1.984   1.077 -0.1997 -0.2382 -0.1082
    1W        W34298  26.685  18.214   0.765  0.1447  0.1298  0.1675
    1W        W34299   3.680  27.515   9.000 -0.0188  0.0647  0.0895
    1W        W34300   9.267  29.064   0.589 -0.1079  0.1370  0.3484
    1W        W34301  17.893   0.651   7.140  0.2030  0.0400 -0.1739
    1W        W34302   3.664  12.003   1.218  0.2854  0.0580 -0.1463
    1W        W34303   6.864  10.563   6.776  0.0187 -0.1601  0.2429
    1W        W34304   6.612  26.296   7.851 -0.1710  0.1354  0.0338
    1W        W34305   1.628  22.450   7.334 -0.1224  0.3228 -0.2013
    1W        W34306  20.936  21.681   0.239  0.0076  0.2539 -0.1262
    1W        W34307  15.680   8.545   8.546  0.2091  0.0123 -0.0703
    1W        W34308  13.747  23.243   7.318  0.2000  0.1267  0.3261
    1W        W34309   8.854   2.617   8.001 -0.3009 -0.1813 -0.0074
    1W        W34310  25.216  17.710   2.026  0.1134  0.0562  0.0189
    1W        W34311  10.727  10.431   2.499  0.0540 -0.0749 -0.1418
    1W        W34312   8.135   6.914   2.113  0.1117  0.1002  0.2131
    1W        W34313  16.863   0.349   0.455 -0.0761  0.1615  0.3691
    1W        W34314  10.589  20.361   7.184  0.1688 -0.0754 -0.0774
    1W        W34315  24.845   7.382   0.468  0.0533 -0.1685 -0.0448
    1W        W34316  22.050   5.153   0.692  0.0454  0.0749  0.2745
    1W        W34317  20.155  17.106   8.944  0.0292 -0.0574 -0.4111
    1W        W34318  27.750  24.483   6.589  0.2484 -0.0814 -0.0409
    1W        W34319  21.395  16.344   9.447  0.0743  0.2408 -0.0958
    1W        W34320  26.389  23.231   9.179 -0.1294 -0.3225 -0.2589
    1W        W34321  11.687   3.692   9.289 -0.0616  0.3783 -0.1556
    1W        W34322  29.805  22.926   0.611 -0.0395 -0.0819  0.1587
    1W        W34323  23.615  26.506   3.164  0.1243 -0.1008  0.0498
    1W        W34324  14.432  20.019   0.916  0.2415  0.1683  0.3210
    1W        W34325  24.252  11.578   6.588 -0.1990 -0.0958 -0.0113
    1W        W34326  21.957  28.150   2.392  0.0953 -0.0853  0.0710
    1W        W34327  22.795   6.685   7.580 -0.0606  0.0264  0.0134
    1W        W34328  15.078  10.373   2.377  0.1979 -0.1516  0.0306
    1W        W34329  11.221  22.773   8.644  0.0309  0.2664 -0.2091
    1W        W34330  28.645   1.924   7.752 -0.2566 -0.0043  0.0715
    1W        W34331  11.176  17.247   2.281  0.0579  0.0571  0.2187
    1W        W34332  10.253   5.440   9.241  0.0051 -0.1021 -0.0613
    1W        W34333  10.397   6.428   1.067 -0.1341  0.1908  0.3039
    1W        W34334  13.860  10.324   8.707  0.0338 -0.1464 -0.3181
    1W        W34335  12.583  25.438   7.440 -0.2210 -0.0019  0.1003
    1W        W34336  25.100  20.521   8.297 -0.2398 -0.1487  0.2106
    1W        W34337  12.632  26.339   7.825  0.0826 -0.3416 -0.1930
    1W        W34338   2.972  27.728   5.790  0.0552  0.0675 -0.0369
    1W        W34339  24.690  11.625   0.759  0.1643  0.0774  0.0747
    1W        W34340  17.413   5.544   0.188 -0.1900 -0.3801 -0.2691
    1W        W34341   8.447  16.653   7.110 -0.0610 -0.2299  0.2728
    1W        W34342  16.382   6.687   8.590  0.1923  0.2908 -0.2168
    1W        W34343  22.099   7.237   1.625  0.2479 -0.1913 -0.1126
    1W        W34344  20.111  24.297   6.958 -0.1757 -0.2955 -0.0281
    1W        W34345  11.790  23.053   1.963 -0.2097 -0.0572 -0.1581
    1W        W34346  14.990  10.024   1.296 -0.2090 -0.0595 -0.2585
    1W        W34347  12.935   1.906   7.887 -0.1824 -0.0215 -0.0210
    1W        W34348  29.648   2.715   0.898  0.1180 -0.0499 -0.0580
    1W        W34349  25.900  27.446   7.038  0.3116 -0.1342 -0.0000
    1W        W34350  29.171  29.411   9.262  0.1680 -0.1681  0.1262
    1W        W34351  28.255  12.062   8.269 -0.1617 -0.1018  0.0116
    1W        W34352  23.534  15.998   1.213 -0.1335  0.3788  0.1919
    1W        W34353  15.556  15.913   0.868  0.1955  0.0965 -0.0126
    1W        W34354  24.523  10.938   3.125  0.0445 -0.0904  0.0327
    1W        W34355  23.435  19.308   8.978  0.0456 -0.2960 -0.0225
    1W        W34356  15.848  20.188   8.791 -0.5485  0.2689  0.0574
    1W        W34357   6.031  19.952   1.702 -0.2101 -0.1330 -0.2807
    1W        W34358   6.709  21.974   7.052  0.0485  0.1803  0.3038
    1W        W34359   7.054  14.235   8.723 -0.2701  0.1160 -0.0063
    1W        W34360  19.042  25.767   7.941  0.0938  0.1356 -0.3428
    1W        W34361   2.719  21.785   7.433 -0.1835 -0.2970 -0.2259
    1W        W34362   8.372   6.171   1.212  0.0033  0.3631 -0.3176
    1W        W34363   9.121  21.056   1.704 -0.1004 -0.0402  0.0742
    1W        W34364  27.430  24.169   0.877  0.1258 -0.3019 -0.3334
    1W        W34365   3.875  19.095   2.179  0.1326 -0.0522 -0.1182
    1W        W34366  12.370  20.987   0.459  0.2263 -0.1024 -0.1341
    1W        W34367  24.175  29.080   8.787  0.0261  0.1177  0.0021
    1W        W34368  22.270   6.599   2.423  0.1527 -0.1598 -0.1484
    1W        W34369   8.808  22.103   5.738 -0.1014 -0.0664 -0.0479
    1W        W34370  26.025   3.044   9.444  0.0311 -0.2328 -0.0110
    1W        W34371   7.526  28.734   3.517  0.1971 -0.1676 -0.0196
    1W        W34372  25.078  15.474   1.974 -0.1666  0.0879 -0.0692
    1W        W34373  20.125   6.696   0.908 -0.1637 -0.4713  0.0441
    1W        W34374  26.375   9.682   8.715 -0.0298  0.0377  0.0940
    1W        W34375  18.610  11.421   6.774 -0.0000  0.0105  0.1131
    1W        W34376  15.784  15.495   7.173 -0.0855 -0.1786  0.1544
    1W        W34377  13.059   7.267   8.020 -0.3193  0.1946 -0.0972
    1W        W34378  19.578  11.299   1.536 -0.1031  0.1115 -0.0252
    1W        W34379  16.291  18.929   7.037  0.2792  0.0719 -0.0446
    1W        W34380  11.964  12.702   2.394 -0.1913 -0.3237  0.2107
    1W        W34381  17.980  24.905   7.618  0.0799 -0.0952  0.0823
    1W        W34382  25.751   1.640   9.378  0.0198  0.0322 -0.0753
    1W        W34383   4.983   5.170   8.251 -0.1917 -0.0847  0.1323
    1W        W34384   6.696  21.386   6.934  0.1143 -0.1228  0.0398
    1W        W34385  26.853  16.993   1.258 -0.4189 -0.1648 -0.1666
    1W        W34386  26.014  26.505   2.642 -0.0162 -0.2447 -0.1323
    1W        W34387  27.006  20.976   1.012 -0.2058 -0.3373  0.0482
    1W        W34388   7.793  21.220   2.256 -0.3416  0.0555  0.3063
    1W        W34389  13.382  23.320   6.463  0.0093  0.0058  0.1662
    1W        W34390  11.032  23.279   0.932  0.1080 -0.1593 -0.0356
    1W        W34391  29.356  27.829   0.682  0.0312  0.1977 -0.1600
    1W        W34392  21.545   9.919   2.283  0.2289  0.2868  0.1432
    1W        W34393   7.901  14.648   1.215 -0.0280  0.2590  0.1661
    1W        W34394  27.660  16.848   8.271 -0.1814 -0.1254  0.2197
    1W        W34395  26.104  16.471   0.597 -0.0173 -0.0538  0.0581
    1W        W34396  15.218  16.244   7.890 -0.0266 -0.2085  0.1499
    1W        W34397  14.802  10.694   7.783 -0.2598  0.1400 -0.1102
    1W        W34398  22.787   1.472   7.708 -0.2435 -0.0708  0.1798
    1W        W34399  11.294  16.509   8.926  0.1373  0.0198  0.0204
    1W        W34400  24.265  10.960   2.163  0.3308 -0.1560 -0.0077
    1W        W34401   2.156  26.993   1.261 -0.1047  0.0254 -0.0498
    1W        W34402   3.019  24.605   0.728  0.2550 -0.2193  0.0637
    1W        W34403  27.482   0.011   2.601  0.1408 -0.0994 -0.1036
    1W        W34404  12.996  14.824   1.576  0.0897  0.1797  0.1800
    1W        W34405  22.112   7.728   1.414  0.0304 -0.0652 -0.1344
    1W        W34406  12.353   3.787   2.740  0.1446 -0.0366  0.0747
    1W        W34407  16.645  14.812   7.517  0.3375  0.4318  0.0745
    1W        W34408   6.201  26.941   0.210 -0.1573  0.0140 -0.0784
    1W        W34409  29.246  23.388   0.845  0.2513  0.3459  0.0318
    1W        W34410  13.325  12.302   8.901 -0.0981  0.2403 -0.0216
    1W        W34411  22.929   1.043   1.878 -0.1008 -0.0296  0.1398
    1W        W34412   1.914   1.441   9.017 -0.0907 -0.4727  0.0696
    1W        W34413  22.227  28.725   2.008  0.1145 -0.1928  0.0037
    1W        W34414   0.812  22.685   9.306  0.1564 -0.0125  0.1942
    1W        W34415  17.288  11.184   8.905 -0.0395 -0.2361 -0.1609
    1W        W34416  26.486   1.981   2.030 -0.1086  0.3730 -0.3654
    1W        W34417  17.511  25.167   7.418  0.0719 -0.0542  0.0958
    1W        W34418   3.816  27.908   9.315 -0.4490 -0.1924  0.2110
    1W        W34419  27.101  18.643   8.440 -0.0212 -0.1871 -0.1583
    1W        W34420   4.019  12.265   1.786  0.1235 -0.1017  0.0536
    1W        W34421  27.752   5.357   0.785 -0.1384 -0.0479 -0.1097
    1W        W34422   8.309  20.065   0.276 -0.3672 -0.0108 -0.0958
    1W        W34423  10.696  12.315   2.919 -0.1900 -0.3748 -0.0780
    1W        W34424  11.126   9.310   8.144 -0.0527 -0.0245  0.0155
    1W        W34425   0.116  18.610   8.856 -0.1411 -0.1645 -0.1886
    1W        W34426  28.116  15.516   1.907 -0.0260  0.1112  0.0002
    1W        W34427  11.016  11.031   0.828  0.0962  0.1051 -0.2854
    1W        W34428   4.476  18.491   7.359 -0.0235 -0.0373  0.0829
    1W        W34429  27.282  13.041   1.512  0.0325  0.1433 -0.1365
    1W        W34430  10.157   6.897   8.722 -0.1659  0.0865  0.1642
    1W        W34431  16.298   5.867   7.999 -0.0747  0.3392  0.1177
    1W        W34432   1.207   3.126   1.786  0.0831  0.0356 -0.0312
    1W        W34433   6.031  18.982   2.382  0.2080 -0.1895  0.0238
    1W        W34434  15.946   1.193   0.889  0.1288 -0.2302  0.0350
    1W        W34435   1.452  27.137   1.314 -0.2323 -0.2571  0.1521
    1W        W34436  17.121   4.176   7.189 -0.0322 -0.1040  0.0576
    1W        W34437  22.996   7.359   6.683  0.0134 -0.1825  0.1116
    1W        W34438   5.180   2.128   3.273 -0.1436 -0.2240  0.0491
    1W        W34439  16.247  13.460   6.850  0.1982  0.0857  0.2816
    1W        W34440  13.233   0.142   2.738 -0.0901 -0.0977 -0.1225
    1W        W34441  28.178  21.021   1.406  0.0380  0.1766  0.1956
    1W        W34442  17.015  25.955   3.395  0.2630 -0.0149  0.0342
    1W        W34443  26.313   6.810   7.406  0.2652 -0.0459  0.0937
    1W        W34444   2.083  18.235   6.629 -0.2478  0.3405  0.0911
    1W        W34445  11.739   4.995   8.876 -0.3061 -0.0767  0.1594
    1W        W34446  10.112  28.822   0.005  0.0032  0.1090 -0.0972
    1W        W34447  28.464  23.452   0.123  0.1250  0.0502  0.0812
    1W        W34448  29.018  27.738   6.443  0.0413 -0.2513 -0.1136
    1W        W34449  15.350  11.880   0.159 -0.5473 -0.0430  0.3047
    1W        W34450   7.404  18.566   0.123 -0.3064  0.2470 -0.1514
    1W        W34451   7.527  14.343   8.953 -0.0782 -0.2534 -0.0356
    1W        W34452  20.155   3.018   7.157  0.1271 -0.2668  0.0683
    1W        W34453   9.310  10.002   2.361  0.1350 -0.1119 -0.1634
    1W        W34454  24.626   2.857   1.174 -0.2286  0.3860 -0.1741
    1W        W34455  25.163  19.093   9.261  0.0010 -0.1277  0.1756
    1W        W34456  21.088  25.009   7.560  0.2659 -0.1420 -0.0016
    1W        W34457   7.106   4.714   8.383  0.2381  0.0749  0.0310
    1W        W34458   4.657   2.732   9.012  0.1674  0.0390  0.2552
    1W        W34459  21.569  12.378   0.827 -0.1712 -0.0168  0.0755
    1W        W34460   5.508   6.507   1.516 -0.3822  0.1357 -0.1827
    1W        W34461  25.707   4.021   2.008  0.0373  0.2831  0.1797
    1W        W34462   6.966  10.085   2.258 -0.1907  0.1063  0.3735
    1W        W34463   3.548  10.275   2.673  0.0133 -0.2475 -0.4817
    1W        W34464   2.661   1.810   3.250  0.0986 -0.0701  0.2288
    1W        W34465   4.033  16.111   1.223 -0.1269  0.0956  0.0997
    1W        W34466  15.213  21.553   0.873  0.0888  0.0981  0.2540
    1W        W34467  11.867  14.994   7.550 -0.2159 -0.1112  0.1087
    1W        W34468  22.550  24.445   0.562 -0.1361  0.0933  0.1170
    1W        W34469  13.569  15.833   7.666 -0.2093  0.0608  0.0150
    1W        W34470  21.337   9.227   9.253  0.1192  0.0745  0.1138
    1W        W34471   8.702  13.237   0.583  0.0440 -0.0148  0.1687
    1W        W34472   7.473  15.057   2.457 -0.1501  0.0849  0.1774
    1W        W34473   1.526   4.984   0.103 -0.1199  0.0707 -0.1452
    1W        W34474   3.011   3.283   0.342 -0.0445  0.0498  0.3415
    1W        W34475  17.093  15.823   9.012  0.1858 -0.2761  0.0908
    1W        W34476  25.872   7.084   1.004 -0.1107  0.0981  0.0060
    1W        W34477   1.446  12.788   8.704 -0.0540 -0.1666  0.2539
    1W        W34478  16.272  16.244   9.049  0.0941  0.1311  0.0968
    1W        W34479  12.684   8.241   0.303 -0.0715 -0.0015  0.2010
    1W        W34480  10.414  16.524   7.399  0.3943 -0.0236 -0.2552
    1W        W34481   3.151  22.215   0.545  0.1664  0.0585  0.0052
    1W        W34482  22.525  11.222   5.731  0.0331  0.0212  0.0948
    1W        W34483   8.905   6.775   3.951  0.1315  0.2728  0.0096
    1W        W34484  17.502  14.017   8.644  0.1970 -0.0663  0.2202
    1W        W34485   9.739   6.632   9.067 -0.0870  0.0964 -0.3785
    1W        W34486  26.357  19.257   8.818  0.2284  0.2499 -0.0814
    1W        W34487  16.354  29.782   6.299 -0.0273  0.0743  0.1280
    1W        W34488  20.951   2.991   0.990  0.0203 -0.0376  0.3744
    1W        W34489   7.772  16.017   8.794  0.2830 -0.0206  0.0012
    1W        W34490  26.506  10.336   1.393  0.1014  0.1521  0.0205
    1W        W34491  20.662  20.102   7.893  0.0630 -0.0481  0.2976
    1W        W34492  28.083  13.026   8.324  0.3323  0.1465 -0.0430
    1W        W34493  29.380  29.751   0.659  0.2163 -0.0058  0.6204
    1W        W34494  20.840  20.941   2.222 -0.2178  0.1090  0.1472
    1W        W34495  22.381   2.571   0.818 -0.0842  0.0364 -0.1792
    1W        W34496  22.221  20.376   7.810 -0.1579 -0.1239  0.2099
    1W        W34497  23.237   9.358   9.116  0.2688 -0.3485 -0.4534
    1W        W34498  16.656  24.889   0.921  0.2528 -0.1612 -0.0388
    1W        W34499   8.699  25.702   7.064  0.4616  0.2291 -0.2475
    1W        W34500  26.742  23.863   6.855 -0.0836 -0.1657  0.3932
    1W        W34501   3.928  10.420   7.715  0.5611 -0.0554  0.0845
    1W        W34502   2.437  25.995   0.272 -0.1394 -0.0584  0.5610
    1W        W34503  25.727   4.099   0.128 -0.2194 -0.1036 -0.1142
    1W        W34504   7.911  16.086   7.249 -0.2600 -0.1578  0.2218
    1W        W34505  10.512  19.142   9.426 -0.0127  0.0135 -0.1346
    1W        W34506   6.197  25.521   8.192  0.2697 -0.2307 -0.0742
    1W        W34507  29.553  15.935   9.100  0.0613  0.0511 -0.1283
    1W        W34508  16.698   1.000   8.312 -0.0261 -0.0536 -0.2009
    1W        W34509   6.067  23.849   0.168 -0.1766  0.0774 -0.1912
    1W        W34510  20.644  29.496   0.541  0.5866 -0.1075  0.4684
    1W        W34511  24.608   9.650   0.117  0.2849  0.0139 -0.1089
    1W        W34512  28.414   1.305   9.021  0.0679 -0.0274 -0.0760
    1W        W34513   7.929  17.435   7.020 -0.0656 -0.0101  0.0179
    1W        W34514  19.464  11.411   1.084  0.0421 -0.0460  0.0672
    1W        W34515  19.885   6.105   7.340  0.2990 -0.0890  0.2002
    1W        W34516   0.456  17.432   1.461  0.1776 -0.0563  0.2485
    1W        W34517  25.344   9.604   6.429  0.1675 -0.1863 -0.0521
    1W        W34518  16.814   4.150   6.251 -0.0935  0.1791 -0.3563
    1W        W34519  28.897   1.803   7.369 -0.2370 -0.0693  0.2825
    1W        W34520  18.217  25.311   7.879  0.1874 -0.0746  0.0559
    1W        W34521  18.652   0.434   1.110  0.0380 -0.0851  0.2102
    1W        W34522  17.443  18.478   2.126  0.2153  0.0307  0.2168
    1W        W34523  22.648  21.444   0.288 -0.0663 -0.2711  0.0405
    1W        W34524  29.609  25.372   6.646 -0.0265 -0.1327  0.6472
    1W        W34525  16.846   1.758   7.457 -0.3043  0.1098  0.1930
    1W        W34526  20.213   9.134   0.543 -0.0748  0.1148 -0.0191
    1W        W34527  14.834   1.843   8.949 -0.0675 -0.1654 -0.2549
    1W        W34528  19.149   5.718   9.389  0.2056  0.0607 -0.0097
    1W        W34529  11.294   1.890   1.335 -0.0111  0.1103  0.0508
    1W        W34530  23.396  12.144   8.936 -0.1496  0.1108  0.1315
    1W        W34531  28.235  19.129   7.712 -0.3053 -0.0090 -0.1320
    1W        W34532  26.670  19.157   6.705 -0.0200 -0.0783  0.1226
    1W        W34533  20.237  26.266   8.904  0.2808 -0.1139  0.0128
    1W        W34534   2.616  15.476   1.279  0.2004  0.0288  0.2243
    1W        W34535   1.093   3.057   1.295  0.0126 -0.5315  0.0128
    1W        W34536  14.103  12.575   9.357 -0.1140  0.3843 -0.1953
    1W        W34537  17.855  28.106   8.667 -0.1808  0.0419 -0.0962
    1W        W34538  29.777  10.624   5.955  0.0238  0.0158 -0.3099
    1W        W34539  29.653  28.416   2.749  0.0964  0.0735 -0.0408
    1W        W34540   2.310  27.140   2.350  0.2094 -0.1453  0.1741
    1W        W34541  19.467   6.504   1.597  0.1489  0.2263  0.0375
    1W        W34542   8.931   6.704   3.450  0.1257  0.0219 -0.3723
    1W        W34543  13.910  22.306   9.218 -0.3247  0.0997 -0.2375
    1W        W34544  28.752  25.356   7.134 -0.0433 -0.2214 -0.4257
    1W        W34545  20.640   6.758   0.672  0.1126  0.6619  0.3192
    1W        W34546  25.040   9.159   7.531  0.0408  0.2187  0.0019
    1W        W34547  22.639  21.918   1.305  0.0569 -0.1125 -0.1870
    1W        W34548  28.379  23.157   8.663  0.1295 -0.1955 -0.3132
    1W        W34549  13.254  15.182   1.797 -0.0970 -0.1611  0.0635
    1W        W34550   8.450  18.984   7.242 -0.1779  0.1101 -0.0143
    1W        W34551   4.790  10.591   0.371 -0.1553  0.0160 -0.0735
    1W        W34552  13.975   0.271   2.069  0.0058  0.2168  0.2536
    1W        W34553   0.628   1.838   3.937  0.0374 -0.1664 -0.0310
    1W        W34554  16.480   1.425   2.665  0.2918 -0.2934 -0.0111
    1W        W34555  28.279  26.895   1.545 -0.2195  0.1599 -0.3258
    1W        W34556  16.384   9.092   9.074 -0.2031 -0.0330 -0.2568
    1W        W34557  12.571   9.277   6.783 -0.2323 -0.1663  0.0946
    1W        W34558  28.370   2.130   0.854  0.0972 -0.3243  0.0569
    1W        W34559  18.039   3.028   1.257  0.0012 -0.3191 -0.0905
    1W        W34560   5.757  14.498   1.518  0.1875 -0.3163 -0.0275
    1W        W34561   3.047   8.647   8.216 -0.0259  0.1587 -0.0389
    1W        W34562  21.216  22.788   6.700 -0.0388 -0.2473  0.1623
    1W        W34563  20.893   2.616   2.127  0.2902 -0.0716  0.0499
    1W        W34564   7.563   9.113   8.476 -0.2561 -0.2802 -0.2003
    1W        W34565  12.224  28.926   1.488 -0.0014  0.0221 -0.2607
    1W        W34566  24.716   7.291   1.780 -0.0838 -0.3847  0.1381
    1W        W34567   2.420  19.755   8.814  0.4566 -0.2180  0.2052
    1W        W34568  18.792  27.055   7.497  0.3068 -0.0178  0.2754
    1W        W34569  21.465  15.118   8.883  0.3280  0.1672 -0.2410
    1W        W34570  24.455   5.119   1.274  0.1730 -0.1456 -0.1584
    1W        W34571  26.791   4.958   2.727 -0.2370  0.1939  0.1008
    1W        W34572  19.837   1.513   0.232 -0.1142  0.1927 -0.0420
    1W        W34573  22.985  19.796   0.612 -0.3608  0.0270  0.2563
    1W        W34574   1.340   5.979   2.627 -0.1271  0.0030  0.2390
    1W        W34575  23.747  11.733   1.067 -0.1595  0.0330  0.0760
    1W        W34576  10.527  18.520   7.035  0.0303  0.0824  0.1441
    1W        W34577   9.056  21.398   6.777  0.1041  0.2340 -0.0429
    1W        W34578  24.699  15.881   5.795 -0.1704  0.2101  0.0002
    1W        W34579   3.639  11.531   7.617 -0.2024  0.3212  0.1233
    1W        W34580  27.917  26.411   8.933  0.3153  0.2872  0.3089
    1W        W34581  15.273   1.970   9.299 -0.4081  0.2272  0.1551
    1W        W34582  23.374  14.088   1.442  0.1536  0.3170  0.0992
    1W        W34583   3.295   9.245   1.083 -0.0987  0.0204  0.0527
    1W        W34584  25.950  17.252   7.364 -0.1076 -0.2541  0.3210
    1W        W34585  23.528  29.744   3.601 -0.0078  0.0145 -0.1649
    1W        W34586  18.353   0.196   0.274  0.1976 -0.0623  0.1513
    1W        W34587   1.832   4.781   8.673  0.3086 -0.0119  0.1903
    1W        W34588   7.964  23.766   7.347  0.1935  0.2422 -0.2180
    1W        W34589   1.162  24.298   7.015 -0.2163  0.1157 -0.0488
    1W        W34590   0.417   7.981   8.160  0.2125 -0.0496 -0.0552
    1W        W34591  26.663   0.823   0.864 -0.0356 -0.2548 -0.0112
    1W        W34592  13.588  10.253   1.216  0.2965 -0.2265 -0.0616
    1W        W34593  29.003   6.114   7.501  0.0116 -0.1736  0.0725
    1W        W34594  27.705  25.543   8.485  0.1523  0.1579  0.0026
    1W        W34595  27.788  15.000   0.579 -0.2728 -0.4721  0.0872
    1W        W34596  29.461  16.503   6.733  0.1582  0.0928 -0.1084
    1W        W34597  14.928   3.420   8.091  0.0060  0.0578 -0.2685
    1W        W34598  22.594  12.181   0.634  0.3671  0.2371  0.2312
    1W        W34599  23.864  29.801   8.131  0.2173 -0.3278  0.0541
    1W        W34600   9.301  22.233   0.125  0.2064 -0.1902 -0.3551
    1W        W34601   5.685  13.623   8.901  0.2999 -0.1869  0.0550
    1W        W34602  22.644  27.325   3.155 -0.0036 -0.2234 -0.1371
    1W        W34603   0.183  19.725   6.450 -0.0167  0.1223  0.0425
    1W        W34604  27.320   7.830   7.220  0.0207 -0.1328  0.1563
    1W        W34605  25.323  22.374   8.651 -0.3177  0.0597 -0.1174
    1W        W34606  22.743  17.603   6.937  0.1627 -0.0982 -0.1216
    1W        W34607   6.728  12.257   6.291  0.0419 -0.1324 -0.0485
    1W        W34608  22.743  14.598   8.428  0.2382  0.2534  0.2020
    1W        W34609  29.027   8.311   8.020 -0.1533  0.1218 -0.4222
    1W        W34610  25.788   5.954   2.889  0.1022 -0.1003 -0.0508
    1W        W34611  22.848   5.991   7.928 -0.0549  0.0388 -0.1831
    1W        W34612  26.392  26.664   8.256 -0.2013  0.1553 -0.1067
    1W        W34613  19.228   7.367   8.658  0.0162 -0.1222 -0.0040
    1W        W34614  15.130  26.227   8.054  0.2278  0.1053  0.1073
    1W        W34615   1.630   0.197   6.662 -0.1023 -0.1386  0.2634
    1W        W34616  24.699  11.818   8.645 -0.2046 -0.0598 -0.3904
    1W        W34617   0.754  26.560   0.588 -0.0739  0.4698  0.1203
    1W        W34618  13.863  16.384   0.345  0.2637 -0.1167  0.1421
    1W        W34619   8.782  11.408   1.530  0.1291  0.0752 -0.3567
    1W        W34620  25.809   3.318   7.165 -0.0052 -0.1563  0.0719
    1W        W34621  17.926  17.164   7.708 -0.2413  0.1578 -0.3431
    1W        W34622  22.102  22.157   7.091  0.1446  0.0362  0.0301
    1W        W34623  27.676  10.804   8.093  0.2720  0.2108  0.0512
    1W        W34624  22.219   9.955   0.499 -0.0864  0.0186  0.0847
    1W        W34625  27.598  28.041   8.827  0.1772 -0.2422 -0.1878
    1W        W34626  13.703  24.426   1.325  0.0381 -0.2576 -0.1344
    1W        W34627  24.910  28.756   0.201  0.0096 -0.0196  0.3450
    1W        W34628   9.924   7.942   2.133  0.0405  0.0654 -0.0698
    1W        W34629   7.453   9.797   1.944  0.0884 -0.0268 -0.2224
    1W        W34630  26.389  15.108   7.081  0.1431 -0.2677  0.2234
    1W        W34631  23.663  27.511   1.815 -0.0413  0.4713 -0.1911
    1W        W34632  27.542  28.366   0.824  0.1257 -0.2331  0.0176
    1W        W34633  29.043   0.810   9.110 -0.3191 -0.0196 -0.3443
    1W        W34634   5.774   6.746   1.022 -0.0062 -0.1385  0.1902
    1W        W34635  27.822  13.963   5.802  0.2017 -0.0892  0.1424
    1W        W34636   7.374  18.781   6.489 -0.0041  0.1942  0.2580
    1W        W34637   1.072   2.168   0.046  0.3098 -0.2362 -0.0994
    1W        W34638  12.812   0.058   3.100  0.1074  0.0199  0.0505
    1W        W34639  14.718  25.607   7.480  0.1275  0.0329  0.0942
    1W        W34640   0.122  17.209   1.802  0.1547 -0.0389 -0.0981
    1W        W34641   2.130  17.252   9.408  0.0352  0.2957 -0.2662
    1W        W34642  25.511  28.267   7.836 -0.1899 -0.3533 -0.0417
    1W        W34643  12.784  14.735   2.475 -0.0625 -0.2293 -0.0301
    1W        W34644  13.630   9.586   8.254 -0.1986  0.1907 -0.3066
    1W        W34645  28.145   0.795   6.878  0.1007 -0.0531  0.1919
    1W        W34646   0.206  18.043   8.234 -0.3756  0.0490 -0.0372
    1W        W34647  27.715   9.507   7.260  0.1478 -0.2285  0.2940
    1W        W34648  29.120   5.896   1.291 -0.0650  0.2031  0.1109
    1W        W34649  12.532  16.657   7.171  0.1158 -0.1415  0.2507
    1W        W34650  18.184  12.794   8.467 -0.0934 -0.3341 -0.1876
    1W        W34651  17.088   0.800   9.080  0.0504 -0.1811  0.2296
    1W        W34652   0.062  26.049   1.080 -0.1366  0.1217 -0.0690
    1W        W34653  16.829   2.393   0.753  0.2322  0.1096  0.0183
    1W        W34654   1.218   3.581   1.481 -0.0087 -0.0639 -0.2984
    1W        W34655   5.096  16.195   1.128 -0.2052 -0.2217 -0.0430
    1W        W34656  29.093  20.956   0.774  0.1042  0.2337  0.0693
    1W        W34657   9.464  27.946   1.221  0.0260 -0.1350 -0.1717
    1W        W34658  26.365   9.291   0.110  0.2068  0.0241 -0.2176
    1W        W34659  11.576  27.806   8.837 -0.1630 -0.0749  0.2853
    1W        W34660  14.212   4.102   1.847 -0.0671 -0.0960  0.1497
    1W        W34661  10.296   0.752   1.589  0.0401 -0.1774 -0.3855
    1W        W34662  21.960  26.262   0.790 -0.1158  0.1925  0.1369
    1W        W34663   5.728  18.264   9.335  0.2156 -0.1765 -0.0954
    1W        W34664  16.234  23.673   7.691 -0.0191  0.2356  0.0743
    1W        W34665   2.928  11.494   6.020  0.0151 -0.2208 -0.0162
    1W        W34666  18.903  27.130   2.795  0.0421 -0.1407 -0.2382
    1W        W34667  20.225  26.144   7.380 -0.0671 -0.1342  0.0137
    1W        W34668  25.839   4.236   3.379 -0.1130 -0.1379 -0.2294
    1W        W34669  24.975   5.098   7.337 -0.0529  0.1015 -0.0382
    1W        W34670   3.871   0.512   9.323 -0.3119  0.0679  0.0289
    1W        W34671  24.504   9.610   0.704  0.2075 -0.2525  0.3582
    1W        W34672  17.162  13.479   7.122  0.0059 -0.1418  0.1075
    1W        W34673  28.967  23.843   0.821 -0.2944 -0.0907  0.1009
    1W        W34674  20.478   6.319   1.584 -0.2653 -0.2127 -0.1403
    1W        W34675  27.918  21.690   1.927 -0.1712 -0.0279  0.0580
    1W        W34676  14.522   9.011   0.728 -0.0181  0.1289  0.0591
    1W        W34677   1.885   8.774   2.223  0.0228 -0.0816 -0.1405
    1W        W34678  20.404  29.282   7.019 -0.0316 -0.0719 -0.0803
    1W        W34679   9.821   7.490   1.736  0.0147 -0.2148 -0.2062
    1W        W34680   2.600  26.920   0.639  0.0833 -0.0861  0.1436
    1W        W34681   3.749   4.009   2.869  0.2587 -0.2456  0.3929
    1W        W34682   6.512   5.414   2.777 -0.2272 -0.0347 -0.0639
    1W        W34683  16.543  12.461   9.183  0.4192 -0.2636  0.0045
    1W        W34684   4.728  16.576   1.065 -0.4217  0.0159 -0.2268
    1W        W34685   1.002  23.882   6.668  0.0911  0.2150  0.1122
    1W        W34686   1.328  25.233   6.587  0.0786  0.0283  0.0233
    1W        W34687  21.376  24.460   8.787  0.1677  0.2524 -0.1700
    1W        W34688   2.326  15.982   1.532 -0.4238  0.1575 -0.1685
    1W        W34689  13.624   5.058   1.201 -0.0128 -0.2113 -0.0416
    1W        W34690  15.776   5.057   0.815 -0.0319  0.0300 -0.0150
    1W        W34691  18.943  22.926   2.366 -0.1254  0.1060  0.0399
    1W        W34692  10.216  20.931   8.865  0.3243 -0.0712  0.0151
    1W        W34693  19.134  12.620   8.411 -0.2300 -0.0838 -0.0335
    1W        W34694  10.978   1.875   3.605  0.0126  0.1203  0.6567
    1W        W34695  13.299  11.574   1.898  0.0399 -0.0450 -0.0699
    1W        W34696   0.079   2.624   7.670 -0.0667 -0.2323  0.1949
    1W        W34697  26.389  11.597   1.262  0.1061  0.1018 -0.2735
    1W        W34698   1.208  15.462   0.737 -0.0616 -0.2591  0.3733
    1W        W34699   2.631  14.250   7.976 -0.1322  0.1887 -0.0006
    1W        W34700  27.185   7.377   1.528  0.0181  0.0447  0.3012
    1W        W34701  26.026  12.271   2.370  0.2992  0.1151  0.1184
    1W        W34702   8.890   5.181   1.542 -0.2740 -0.1579 -0.0159
    1W        W34703  24.874   4.598   7.968  0.1033 -0.0425  0.0120
    1W        W34704   0.444  28.563   8.942  0.2208  0.0476  0.2572
    1W        W34705  23.198  15.537   0.165  0.0835  0.1271 -0.0415
    1W        W34706   2.057  10.102   2.242  0.1206  0.0990 -0.1066
    1W        W34707   7.457  11.978   6.751  0.0927  0.1376  0.1572
    1W        W34708   0.158   1.569   8.723  0.0703  0.1640  0.2677
    1W        W34709   4.084  24.964   7.768 -0.0440 -0.0201 -0.1230
    1W        W34710  27.552   7.272   7.298 -0.2479 -0.1742  0.1232
    1W        W34711  13.337  22.828   9.459 -0.5188 -0.0960 -0.1338
    1W        W34712   4.643   8.086   2.190 -0.0809 -0.2618  0.2779
    1W        W34713  17.867   7.976   7.405  0.1371 -0.0212  0.1655
    1W        W34714  17.952  22.945   2.519 -0.2521 -0.1774 -0.0396
    1W        W34715  14.671  11.208   0.094 -0.1236 -0.0626  0.1401
    1W        W34716  10.159   6.301   8.858  0.3281  0.0916 -0.1101
    1W        W34717   6.231  26.362   1.446 -0.0934 -0.0365  0.0243
    1W        W34718  27.168   0.936   3.175  0.0638  0.0797 -0.1441
    1W        W34719  20.404   9.203   7.954  0.0464  0.2098  0.0095
    1W        W34720   1.292   4.343   7.041 -0.1691  0.0984 -0.0039
    1W        W34721  28.838  28.711   8.771  0.1401 -0.0492 -0.2734
    1W        W34722   4.170  28.289   9.358 -0.3347 -0.1670 -0.1080
    1W        W34723   1.121  17.104   9.264  0.2372 -0.1377  0.1680
    1W        W34724   2.404   0.478   2.076  0.0782  0.0303  0.2997
    1W        W34725  15.298   8.831   8.911 -0.0254 -0.0873 -0.1463
    1W        W34726   6.214  29.463   6.322 -0.1242 -0.2622  0.1588
    1W        W34727  20.193  16.338   1.891 -0.1105  0.2345  0.1979
    1W        W34728  21.690   5.744   8.644 -0.0975  0.1509  0.0748
    1W        W34729  17.945  22.849   0.893 -0.3282  0.1970  0.0301
    1W        W34730  24.323  26.977   2.079 -0.0719 -0.1504  0.2600
    1W        W34731  14.069  22.962   1.365 -0.0415  0.1077  0.0055
    1W        W34732  21.021  13.038   9.047  0.0757  0.0298 -0.1120
    1W        W34733  29.225  24.193   2.694 -0.0565 -0.1142 -0.3411
    1W        W34734  28.321   2.986   0.572 -0.0370 -0.0140 -0.0261
    1W        W34735  24.570  15.618   8.134  0.1370  0.0475  0.1187
    1W        W34736   3.612  13.137   2.036  0.1288  0.0334 -0.0586
    1W        W34737   0.220  24.651   8.975  0.2862 -0.3818  0.1978
    1W        W34738  26.169  15.317   8.761  0.0615 -0.3545 -0.0185
    1W        W34739  21.358  19.089   0.513 -0.2525  0.2644  0.1549
    1W        W34740  15.262  24.381   6.963  0.1420 -0.2656  0.0662
    1W        W34741   3.891  20.638   1.483 -0.2276  0.0153  0.2308
    1W        W34742  13.503  18.453   7.846 -0.0110  0.0579 -0.0737
    1W        W34743  16.165  18.613   1.758 -0.1413  0.2411  0.2344
    1W        W34744  11.041  17.899   7.667  0.1564 -0.0073 -0.1569
    1W        W34745  17.674   7.573   7.138 -0.0065  0.1877  0.0514
    1W        W34746   0.713  19.651   0.321  0.1330  0.0859 -0.1308
    1W        W34747  21.609  24.806   0.792  0.0257 -0.0206 -0.0221
    1W        W34748  27.224  11.734   1.182 -0.0936 -0.0978  0.0799
    1W        W34749  20.033  12.354   6.358 -0.5041  0.0852 -0.3229
    1W        W34750  17.194  26.562   8.158  0.4387  0.1414 -0.0215
    1W        W34751  23.458  28.906   7.482 -0.0557  0.2278  0.4686
    1W        W34752  24.471   2.682   9.266 -0.1001 -0.3468  0.0874
    1W        W34753   5.337  28.153   7.270 -0.0299  0.0998 -0.1600
    1W        W34754  15.665   8.280   8.138  0.1158 -0.1273  0.0007
    1W        W34755   2.541  12.994   0.177  0.0549 -0.0024 -0.0120
    1W        W34756   3.270  13.608   8.258  0.3616 -0.1823  0.0417
    1W        W34757  13.113  22.840   1.344 -0.0721  0.0937  0.1009
    1W        W34758  24.487  14.696   1.532  0.0100  0.1985  0.1486
    1W        W34759   1.539   9.695   2.409 -0.0379 -0.1512  0.0933
    1W        W34760  13.301  15.669   8.093 -0.1437 -0.0277  0.2402
    1W        W34761  19.945  13.960   9.299  0.3286  0.1043 -0.0495
    1W        W34762   6.797   9.746   2.614 -0.0720  0.0501 -0.0639
    1W        W34763  15.807  29.337   8.331 -0.2092 -0.1412 -0.1753
    1W        W34764   0.056  14.624   0.185 -0.1812  0.2504  0.0549
    1W        W34765  17.567  28.551   8.837  0.0951  0.1004  0.1708
    1W        W34766  16.128  14.252   9.043  0.0764 -0.3284 -0.2409
    1W        W34767  15.467  23.614   2.704 -0.2262  0.1599 -0.1109
    1W        W34768  18.858  26.219   8.014  0.1220  0.2082  0.0625
    1W        W34769  12.197  15.839   7.715 -0.0271  0.1046 -0.2227
    1W        W34770  22.706   3.342   9.078  0.0423  0.0691 -0.1059
    1W        W34771  29.691  18.286   7.940 -0.1349  0.1305  0.1027
    1W        W34772  14.379  25.943   8.701  0.0050  0.1649  0.0637
    1W        W34773  28.310  17.437   6.951  0.1378  0.1992  0.1983
    1W        W34774   8.552  11.719   7.627  0.0399 -0.0208 -0.2658
    1W        W34775   4.459  23.082   2.496 -0.2348  0.2895  0.1818
    1W        W34776  17.518   2.832   1.227  0.0485 -0.2478 -0.1356
    1W        W34777  28.636  12.228   0.753 -0.1512 -0.0550 -0.0562
    1W        W34778  23.215  14.580   8.067 -0.1155  0.0017 -0.0285
    1W        W34779   6.135  26.914   7.298 -0.0903  0.2075  0.0734
    1W        W34780  27.588  22.520   1.861  0.3596 -0.1007  0.1305
    1W        W34781  28.100   6.979   2.284 -0.4148 -0.0756  0.2820
    1W        W34782  24.012   9.831   2.920 -0.3889 -0.1066 -0.0267
    1W        W34783   9.535   2.453   4.079 -0.0642  0.2722  0.0445
    1W        W34784   4.725  12.649   0.662 -0.1214 -0.0155  0.0230
    1W        W34785  22.528  27.839   1.698 -0.0741 -0.4021  0.0210
    1W        W34786  28.067  22.985   2.649  0.2008 -0.0975  0.1136
    1W        W34787  21.087   8.877   0.477 -0.0325  0.2059 -0.2786
    1W        W34788  14.981   4.344   6.867 -0.1001 -0.0910  0.0309
    1W        W34789  16.300  24.688   7.952 -0.1255 -0.0358 -0.0287
    1W        W34790   1.757   7.178   9.109 -0.3115  0.1484  0.1227
    1W        W34791  18.129  12.776   6.470 -0.0413 -0.0143  0.1599
    1W        W34792  29.257  21.919   6.666 -0.3873 -0.3638 -0.1383
    1W        W34793  22.140  23.234   2.198 -0.1304  0.5002  0.1944
    1W        W34794  26.739   3.571   9.022 -0.0713  0.0388  0.1299
    1W        W34795  20.119  23.743   2.962  0.1295  0.0924  0.0059
    1W        W34796  13.862   8.535   8.172  0.0809 -0.1841  0.2402
    1W        W34797  22.890  28.713   3.148 -0.2118 -0.0652 -0.2752
    1W        W34798  18.489   6.651   1.077  0.0128 -0.0061  0.2469
    1W        W34799   1.236  26.413   8.084 -0.0224 -0.0683 -0.1082
    1W        W34800  17.302  26.898   9.049  0.4712  0.2261 -0.1984
    1W        W34801   1.865   8.397   9.365  0.0212  0.0172  0.1859
    1W        W34802  27.505  15.409   6.825  0.3389  0.0101 -0.0092
    1W        W34803  19.695  24.597   0.004  0.3366 -0.1997  0.1615
    1W        W34804  24.595  20.107   8.205 -0.0976  0.0798 -0.1517
    1W        W34805   8.533   8.376   9.341  0.0935 -0.1916 -0.1462
    1W        W34806  29.503  29.483   8.833 -0.1174 -0.3288 -0.2755
    1W        W34807   7.908  25.713   1.787 -0.3372 -0.3351 -0.0265
    1W        W34808  25.976  26.469   8.540  0.0517  0.0287  0.0335
    1W        W34809   1.499   2.835   6.449  0.1537 -0.0555 -0.1659
    1W        W34810  29.525   2.110   1.703 -0.3020  0.2215  0.1721
    1W        W34811  11.027  16.678   6.670 -0.1682 -0.0124 -0.1177
    1W        W34812  18.469   5.493   8.976 -0.0597 -0.0751 -0.2214
    1W        W34813   5.839  28.052   1.560  0.3606 -0.1195 -0.0191
    1W        W34814  14.028  20.351   0.712 -0.0877  0.1797 -0.0485
    1W        W34815  21.643  22.809   8.801  0.0900  0.0506  0.3462
    1W        W34816   9.038   5.328   2.633  0.0597 -0.1643  0.0501
    1W        W34817  14.893  26.426   1.703  0.0893  0.1933  0.1635
    1W        W34818   6.038  10.868   0.729  0.2479 -0.0371  0.0807
    1W        W34819  25.739   7.270   2.031 -0.0036  0.2584 -0.1078
    1W        W34820  19.395  19.547   2.453  0.1602 -0.0242  0.1672
    1W        W34821   6.216  27.722   1.160  0.0336 -0.2151  0.0334
    1W        W34822  21.325  14.641   8.633 -0.2352  0.0501  0.2168
    1W        W34823  20.161   8.394   9.229  0.0506  0.2165  0.1213
    1W        W34824  25.923   2.368   2.208  0.1410 -0.0050  0.1903
    1W        W34825  14.765   9.487   1.419  0.0433 -0.0034 -0.4306
    1W        W34826   4.355  27.696   0.915 -0.1874 -0.1650 -0.2390
    1W        W34827   9.666  16.281   0.178 -0.0562  0.3901 -0.2513
    1W        W34828  29.722  21.816   6.287 -0.2321 -0.0103 -0.1651
    1W        W34829   8.974   8.162   1.329 -0.0433 -0.3022  0.2060
    1W        W34830   2.404  24.321   8.286  0.2436 -0.1141  0.1371
    1W        W34831  19.242   0.847   2.253  0.1293 -0.1351 -0.0397
    1W        W34832  10.310  27.210   8.369  0.2433 -0.2204 -0.1342
    1W        W34833   8.567  15.371   7.394 -0.0286 -0.0217  0.0264
    1W        W34834  19.570   9.283   8.423 -0.2611  0.0407  0.2709
    1W        W34835  17.752  29.680   1.735  0.2302  0.3701 -0.2526
    1W        W34836   2.138  23.152   0.187  0.1786 -0.1418  0.1075
    1W        W34837  15.966  13.619   7.862  0.3903  0.2241  0.1603
    1W        W34838  18.408  22.431   0.158 -0.0006 -0.2952 -0.1251
    1W        W34839  12.232  21.619   1.461  0.2243  0.3538 -0.2039
    1W        W34840  16.105   0.991   8.965  0.1238 -0.1429 -0.0801
    1W        W34841   4.826   1.723   7.193 -0.0836 -0.0196 -0.2102
    1W        W34842  17.390   3.976   0.315 -0.0813 -0.1379  0.4096
    1W        W34843   2.772  22.023   1.349 -0.0194  0.1449 -0.1024
    1W        W34844   2.201  20.136   1.818 -0.0509 -0.0879 -0.2095
    1W        W34845  25.775  27.211   3.015  0.1673  0.1500  0.0382
    1W        W34846  10.334  21.895   0.582 -0.1932  0.1787  0.0529
    1W        W34847   5.318  17.670   5.452 -0.0455  0.0615  0.0583
    1W        W34848  24.725  22.532   1.292 -0.0416 -0.0820  0.2209
    1W        W34849   0.977  23.057   1.859 -0.1807  0.3620 -0.0028
    1W        W34850   6.490  18.200   0.253 -0.2510  0.2633 -0.1628
    1W        W34851   1.524   8.323   2.198 -0.0324  0.2468  0.0865
    1W        W34852  13.110  27.878   0.788 -0.2610 -0.2699 -0.2936
    1W        W34853   7.523   5.303   0.928  0.0950 -0.1019 -0.1180
    1W        W34854  29.763   0.353   9.406  0.3624 -0.0253 -0.2103
    1W        W34855  23.174  27.615   2.619  0.1305 -0.0380  0.2777
    1W        W34856  25.331  27.742   7.773 -0.0272  0.3784 -0.0893
    1W        W34857  25.412  15.794   0.865 -0.3056  0.1345  0.1065
    1W        W34858  17.691  16.539   1.540  0.1711 -0.1257 -0.2306
    1W        W34859   6.920   0.279   8.422 -0.1003 -0.1534  0.4643
    1W        W34860  22.991  28.255   3.344  0.6565  0.0830  0.2338
    1W        W34861  25.447   9.604   1.387  0.0903 -0.0314  0.1018
    1W        W34862  23.467  24.098   8.311 -0.0675  0.3199 -0.3582
    1W        W34863  26.747   7.678   1.565  0.1506  0.2614 -0.2061
    1W        W34864  16.827  20.188   2.176 -0.0644 -0.0223 -0.3803
    1W        W34865   8.579  14.093   1.869  0.2066  0.1272 -0.2518
    1W        W34866  25.486  15.401   0.512  0.3001 -0.1234  0.0131
    1W        W34867   4.872  19.497   1.328  0.2232 -0.1083  0.0452
    1W        W34868  15.073   9.083   7.154  0.3104  0.1320 -0.1880
    1W        W34869   5.757  10.932   1.159 -0.0190  0.0924 -0.1421
    1W        W34870   1.552   3.466   7.402  0.1471 -0.0977 -0.1840
    1W        W34871   8.181   4.906   9.307  0.1408  0.1884 -0.0291
    1W        W34872   3.158  12.954   7.621 -0.1392 -0.2132 -0.0890
    1W        W34873  23.254  13.392   8.389  0.1850 -0.1041 -0.2026
    1W        W34874   6.281  16.479   2.185  0.2057 -0.1605 -0.0067
    1W        W34875  16.928  10.237   7.571  0.1339  0.2239 -0.1897
    1W        W34876  11.414  26.518   0.281  0.0817  0.2870 -0.4359
    1W        W34877  23.156  17.950   0.285 -0.0088  0.1245 -0.1117
    1W        W34878   0.090   3.591   8.368 -0.0140  0.0742 -0.0685
    1W        W34879   9.526   3.085   8.062 -0.0094  0.1061  0.1083
    1W        W34880   3.152   9.093   8.003 -0.1512  0.0182  0.1074
    1W        W34881  28.657  10.428   8.404 -0.3836  0.2651 -0.1510
    1W        W34882  27.970  26.879   2.931  0.0462 -0.3074  0.3477
    1W        W34883  16.513   1.447   0.568 -0.2235 -0.0079 -0.3680
    1W        W34884  24.708  21.254   9.353 -0.3013 -0.1064  0.2215
    1W        W34885  18.009   2.057   7.059 -0.0333 -0.0860 -0.1600
    1W        W34886  27.743  12.992   6.970 -0.2267  0.0171  0.0181
    1W        W34887   8.504  15.315   1.239 -0.2430 -0.2297  0.4561
    1W        W34888  16.538  23.893   1.835 -0.0519 -0.0111 -0.1283
    1W        W34889   9.867   9.882   2.433 -0.1026 -0.0746  0.1116
    1W        W34890   9.856  26.539   1.177  0.2237 -0.0594 -0.1094
    1W        W34891  15.599  15.131   2.055 -0.2224 -0.1773 -0.1246
    1W        W34892   9.548  18.602   6.948  0.2550 -0.1165 -0.1308
    1W        W34893  22.632  28.846   1.519  0.1089  0.1697  0.0840
    1W        W34894  18.921  10.287   1.538  0.3581 -0.1023  0.2466
    1W        W34895   5.249  27.359   1.111  0.1400  0.1113 -0.0522
    1W        W34896  15.540   7.160   0.585 -0.1453  0.0015 -0.0476
    1W        W34897   7.077   0.967   3.377 -0.2331  0.0493  0.1779
    1W        W34898   2.994   0.649   8.739  0.3461 -0.3745 -0.0143
    1W        W34899  12.507   2.202   0.302 -0.1016 -0.1536  0.0652
    1W        W34900  21.547   7.031   2.727 -0.4531 -0.0829 -0.0694
    1W        W34901  14.023  23.941   1.121 -0.0040  0.0153 -0.0711
    1W        W34902   8.501  19.272   1.300  0.1705  0.0825 -0.0635
    1W        W34903   1.412  16.202   1.362 -0.0292 -0.3643 -0.0266
    1W        W34904  10.745  26.596   1.905  0.2132  0.1216  0.0030
    1W        W34905  27.919  28.420   7.094 -0.0073 -0.1981  0.2698
    1W        W34906  11.669  27.725   6.611  0.0405 -0.0034  0.5963
    1W        W34907  29.460  12.472   1.516  0.3371 -0.2167 -0.0755
    1W        W34908   2.010   4.213   8.569 -0.1580  0.0825 -0.0842
    1W        W34909  25.598  13.759   8.757 -0.0493  0.1074  0.0849
    1W        W34910  11.206  18.445   7.733  0.0869  0.0787  0.0351
    1W        W34911   3.005  11.922   7.869  0.2535  0.0395 -0.1386
    1W        W34912   4.036   4.985   7.773  0.1834 -0.2957  0.2059
    1W        W34913   9.511   7.449   1.341  0.0467 -0.2730 -0.0155
    1W        W34914  27.339   0.824   2.184 -0.0274  0.0991  0.1791
    1W        W34915  22.540  19.334   9.403  0.1473  0.1027  0.2107
    1W        W34916   0.685  23.171   0.075 -0.2711  0.2225  0.2812
    1W        W34917  21.454  27.027   0.248 -0.0880 -0.0277  0.0427
    1W        W34918  13.532  14.120   9.146  0.0599  0.0824 -0.0841
    1W        W34919  13.657  19.983   8.754  0.1336  0.0502  0.0515
    1W        W34920   7.960  10.057   7.181  0.2612  0.0917 -0.0572
    1W        W34921  13.426   3.294   0.890  0.1880 -0.0314 -0.1490
    1W        W34922  21.707   5.552   7.601 -0.1958 -0.1791  0.0116
    1W        W34923  27.984  11.491   7.045  0.0708  0.1722  0.4165
    1W        W34924  10.018   2.117   9.174 -0.1580  0.0279 -0.3479
    1W        W34925   8.329  18.616   7.535  0.2620 -0.0894 -0.1288
    1W        W34926   8.284  20.064   9.233 -0.1249  0.1927  0.1079
    1W        W34927  12.210  17.244   0.240  0.0598  0.1220  0.1467
    1W        W34928   4.200  18.477   2.141 -0.1058  0.2258  0.0623
    1W        W34929  25.537   9.652   2.266  0.0514 -0.1918 -0.0880
    1W        W34930   8.024  10.003   8.915  0.3491  0.0246 -0.0854
    1W        W34931  29.119   1.367   2.331  0.2787 -0.1949 -0.2032
    1W        W34932  18.107   7.501   0.345  0.0897  0.0757  0.1193
    1W        W34933   0.897   7.390   1.390 -0.0774  0.2382  0.2218
    1W        W34934  20.371   2.044   3.099 -0.0749 -0.0972 -0.1366
    1W        W34935  17.496   9.317   1.957 -0.1536  0.0996 -0.1562
    1W        W34936  17.506   6.763   8.054 -0.2211 -0.0236  0.0736
    1W        W34937  26.964   2.000   7.727  0.3242  0.3081  0.0633
    1W        W34938   7.503  24.658   6.703  0.1453 -0.1460 -0.0331
    1W        W34939  22.565   7.427   0.360 -0.1501 -0.2208 -0.0114
    1W        W34940  27.539  23.396   6.580 -0.1635  0.2491  0.0964
    1W        W34941   5.476   6.854   7.822  0.1039 -0.1630 -0.3772
    1W        W34942   9.415  21.392   0.499  0.0570 -0.0656 -0.1972
    1W        W34943  21.072  17.963   8.436 -0.0256  0.1858 -0.0658
    1W        W34944  12.400   0.795   3.569  0.1048 -0.0684  0.2973
    1W        W34945  22.585   5.854   7.111 -0.2111  0.0251 -0.1189
    1W        W34946   9.645  27.238   6.732 -0.0838 -0.1297  0.1852
    1W        W34947  13.295  27.880   1.756 -0.0541  0.0591  0.1992
    1W        W34948  13.293  29.358   2.451 -0.0724  0.0455 -0.0841
    1W        W34949   6.890  15.767   6.024  0.0479  0.1798 -0.1891
    1W        W34950  20.662  10.472   1.722 -0.3189  0.0438  0.1508
    1W        W34951  24.625  19.792   9.170 -0.2602  0.1467 -0.0182
    1W        W34952  28.734  28.301   7.417  0.1329  0.0327 -0.1196
    1W        W34953   7.757  13.751   0.703 -0.1791 -0.3776  0.0472
    1W        W34954  13.408  16.532   0.395  0.1505 -0.1766 -0.0913
    1W        W34955  14.389  12.423   7.552  0.1717  0.0757 -0.4046
    1W        W34956   2.272  11.848   0.116 -0.0220 -0.0349 -0.0967
    1W        W34957   7.397   3.714   2.962 -0.1001  0.2753  0.2642
    1W        W34958   2.242   6.699   7.467  0.1628  0.2199 -0.0061
    1W        W34959  10.140  16.116   7.835  0.0315 -0.4773 -0.1767
    1W        W34960   2.269   8.018   1.484 -0.0257  0.1323  0.2203
    1W        W34961  23.213   4.794   1.738  0.1314 -0.0429 -0.1941
    1W        W34962  28.784  23.800   9.434  0.0828  0.2362  0.1429
    1W        W34963   1.978   1.478   7.986  0.3110 -0.3075  0.0053
    1W        W34964   2.685   1.104   1.674  0.1167  0.1421 -0.0358
    1W        W34965  10.990   4.205   1.061 -0.0296  0.2415 -0.0141
    1W        W34966  11.411   5.934   0.899  0.1910 -0.0786 -0.0814
    1W        W34967  15.900  25.835   9.021  0.0005 -0.0121  0.1816
    1W        W34968  17.565  20.578   2.655  0.1087 -0.3323 -0.1740
    1W        W34969   5.103  18.225   0.498 -0.1895  0.1575  0.0090
    1W        W34970  19.535  26.683   8.452 -0.4130  0.0175 -0.1787
    1W        W34971   5.200  22.789   8.466 -0.1304 -0.4097  0.1334
    1W        W34972   0.354   5.989   9.269 -0.2336 -0.0323 -0.3383
    1W        W34973  18.095   5.159   8.737 -0.2116 -0.2429  0.1835
    1W        W34974   1.071   5.122   8.819 -0.1132 -0.0206  0.0345
    1W        W34975   6.506  16.152   1.692 -0.1412  0.1784  0.2104
    1W        W34976   3.536  22.067   8.101  0.0324  0.0884  0.1095
    1W        W34977  13.895  23.716   0.181  0.0585  0.0322 -0.0559
    1W        W34978  18.790   5.421   2.353  0.2005 -0.0164 -0.2530
    1W        W34979  16.258  27.664   2.052 -0.3751 -0.0992  0.1418
    1W        W34980  13.664  16.823   7.976 -0.1783  0.0857  0.0323
    1W        W34981  19.642   7.525   8.880 -0.0554 -0.0703 -0.3112
    1W        W34982   4.296  27.258   1.273  0.1732 -0.0182 -0.1941
    1W        W34983  27.793   4.883   1.388 -0.0700  0.1249  0.2234
    1W        W34984   5.713  28.957   1.191 -0.0766  0.1947 -0.0153
    1W        W34985   4.709  12.672   8.639 -0.3566  0.0055 -0.1042
    1W        W34986  20.497  20.741   8.646 -0.2008 -0.1718  0.0978
    1W        W34987   5.183  25.422   7.260  0.0576  0.0578 -0.0243
    1W        W34988  25.084   9.157   8.683 -0.0985  0.0539 -0.0357
    1W        W34989  28.909  17.942   1.657 -0.2232  0.2557 -0.0959
    1W        W34990   4.035  26.942   8.749 -0.0468  0.1353 -0.0544
    1W        W34991   4.642  17.572   0.928 -0.0523 -0.0681 -0.0596
    1W        W34992   4.397  16.354   6.913  0.1796 -0.0843  0.0741
    1W        W34993   3.715  28.913   1.876 -0.0996 -0.2774 -0.0873
    1W        W34994  27.779   4.713   7.815  0.1500 -0.4471  0.2170
    1W        W34995   8.004  15.576   7.443  0.0357 -0.2241  0.0720
    1W        W34996   9.061  18.513   8.039  0.2385 -0.0687 -0.0605
    1W        W34997   4.910  12.283   8.393 -0.1551  0.1901 -0.0510
    1W        W34998  28.346  12.004   9.386 -0.2352  0.0229 -0.3504
    1W        W34999  17.015  22.012   1.010  0.1802 -0.0401  0.0017
    1W        W35000  15.608   5.530   1.155  0.2077 -0.0775 -0.0682
    1W        W35001  26.273  23.719   7.565  0.1775 -0.0315  0.0703
    1W        W35002  29.295  12.889   1.692 -0.1336 -0.0058  0.1594
    1W        W35003   4.321  15.147   6.228  0.1949 -0.0155 -0.0035
    1W        W35004  13.887   8.698   0.385 -0.1234  0.1108  0.0377
    1W        W35005  24.109  26.491   3.001 -0.2518  0.2159 -0.3276
    1W        W35006  20.807  22.902   8.713 -0.1234 -0.3748 -0.1239
    1W        W35007  14.972  22.708   6.011 -0.0307  0.1400 -0.3519
    1W        W35008  15.331   5.502   2.665  0.0892 -0.0127 -0.1001
    1W        W35009  10.858  12.267   1.892 -0.2539 -0.2681  0.0825
    1W        W35010  24.033  22.349   9.218  0.2086  0.0396 -0.0422
    1W        W35011   3.287  27.104   1.367 -0.2938  0.0348  0.1666
    1W        W35012  22.104  27.426   9.078  0.2012  0.1296 -0.3661
    1W        W35013  15.357  15.181   9.387  0.0674  0.0035 -0.0310
    1W        W35014  15.799  10.850   0.505  0.2259 -0.1442  0.1699
    1W        W35015  18.335  28.373   3.478 -0.2176  0.0417 -0.2213
    1W        W35016   7.002  12.716   7.075  0.2513  0.0651  0.1744
    1W        W35017   5.988  17.352   7.574 -0.1689  0.0594  0.0683
    1W        W35018  24.916  21.982   7.804  0.0307  0.0895  0.1535
    1W        W35019  22.513   8.812   9.019 -0.0106  0.0557  0.1119
    1W        W35020  28.977  17.454   1.867  0.0579 -0.1487  0.1428
    1W        W35021  13.276  19.197   2.516  0.0393  0.1442 -0.3077
    1W        W35022   7.074  20.881   6.243 -0.0000 -0.0313  0.0425
    1W        W35023  18.357   5.094   1.401 -0.0356 -0.1207 -0.0941
    1W        W35024  25.081  25.029   1.803  0.0866  0.0393  0.0243
    1W        W35025  12.786  11.660   1.799 -0.0793 -0.2780 -0.0601
    1W        W35026  26.206   4.184   2.370  0.0400 -0.0585  0.1254
    1W        W35027  16.209   4.450   7.062  0.3024  0.3360 -0.0243
    1W        W35028   1.142  26.795   0.163 -0.2748 -0.0366  0.3099
    1W        W35029   7.241   5.633   0.591  0.0461 -0.3644  0.1941
    1W        W35030  24.892   7.859   0.295 -0.3248  0.3833  0.0499
    1W        W35031  19.266  24.258   7.733 -0.1187  0.0181 -0.2189
    1W        W35032  23.306   8.312   0.521  0.0663  0.0682 -0.2007
    1W        W35033   3.487  21.129   8.016 -0.1962 -0.1131 -0.1520
    1W        W35034   3.775  29.245   3.464  0.2307  0.0113 -0.0374
    1W        W35035   1.038  28.053   0.892 -0.2760  0.1890 -0.0349
    1W        W35036  18.775  28.832   0.757  0.0642 -0.2684 -0.0685
    1W        W35037   8.404  24.270   8.672  0.0648  0.1238 -0.0383
    1W        W35038  27.969   4.034   9.003 -0.0333  0.0141  0.2739
    1W        W35039   5.895  17.615   7.111  0.4564 -0.0520 -0.0244
    1W        W35040   5.545  15.153   1.973 -0.0348  0.1528 -0.1332
    1W        W35041  24.420  16.469   1.344  0.1410  0.6963 -0.0448
    1W        W35042  17.906  19.872   7.115 -0.0214  0.3298  0.3718
    1W        W35043  18.039  10.121   7.772 -0.0630 -0.0751 -0.1091
    1W        W35044  26.581  25.779   6.502  0.0123 -0.1324 -0.0444
    1W        W35045  28.429   9.206   9.321  0.0808 -0.3490 -0.0051
    1W        W35046  22.734   5.422   2.673 -0.1592  0.0572 -0.2978
    1W        W35047   2.586   4.104   9.398 -0.0975 -0.0916  0.1607
    1W        W35048  16.585   1.014   6.735 -0.3825  0.1299 -0.0456
    1W        W35049  25.307  25.934   1.918  0.0153 -0.2055 -0.1974
    1W        W35050   5.883   0.630   3.570  0.0420  0.1340 -0.1243
    1W        W35051  18.022  26.258   8.689 -0.0945 -0.0184  0.2152
    1W        W35052   6.358  13.514   0.658 -0.0827  0.1717  0.1217
    1W        W35053  19.227  24.032   1.428  0.1730  0.0085  0.3211
    1W        W35054   3.759  24.588   7.691  0.2158  0.1706 -0.0481
    1W        W35055  24.130  26.123   8.319 -0.0422 -0.0368  0.0829
    1W        W35056  21.202  17.298   7.886 -0.0296 -0.1044 -0.1501
    1W        W35057   0.777  27.611   7.490  0.0746  0.3237  0.0008
    1W        W35058   7.553  15.685   7.305 -0.0265 -0.1735 -0.2354
    1W        W35059  22.943   9.284   0.834 -0.1415  0.0299 -0.3318
    1W        W35060   2.937   3.232   9.312  0.1017  0.3588 -0.0435
    1W        W35061  17.197  17.592   1.175  0.1582 -0.1425  0.2460
    1W        W35062  15.167  12.600   2.175  0.1459  0.2646  0.1728
    1W        W35063  17.222  18.523   0.909  0.0437  0.0584  0.3420
    1W        W35064   3.329  27.589   1.436  0.0225 -0.3579  0.1950
    1W        W35065   1.893  28.702   8.067  0.1236  0.0439  0.1699
    1W        W35066  26.420   3.763   7.963  0.5989  0.0646 -0.3308
    1W        W35067  29.412   8.938   1.130  0.3371  0.3351  0.2089
    1W        W35068   3.185  10.808   2.123  0.0840 -0.0483 -0.1580
    1W        W35069  20.049   8.496   1.900 -0.0276  0.1986 -0.0920
    1W        W35070  15.077  21.702   8.281 -0.0890 -0.2064  0.0362
    1W        W35071   4.896   2.769   7.105  0.0277  0.2415  0.0851
    1W        W35072  13.400   2.972   2.362 -0.0597 -0.2790 -0.0828
    1W        W35073  14.768   2.925   1.798  0.1706 -0.3583 -0.1629
    1W        W35074  26.720  10.556   0.787 -0.0434  0.1500  0.2115
    1W        W35075  23.685  24.177   7.084 -0.0597  0.1472 -0.4164
    1W        W35076   0.451  22.653   6.275  0.2055  0.1915  0.2528
    1W        W35077  16.820   6.500   6.110 -0.0675 -0.0902 -0.2487
    1W        W35078  13.712   8.729   1.368  0.2934  0.1451 -0.3437
    1W        W35079   9.137  28.791   0.191  0.1931  0.1561  0.0515
    1W        W35080  28.638  19.458   7.834  0.0877  0.1410  0.1031
    1W        W35081  28.599  29.046   7.867  0.0056  0.3376 -0.1202
    1W        W35082  21.583  29.695   2.756  0.2252 -0.0217  0.0577
    1W        W35083   1.556  20.289   1.307 -0.2882 -0.1008  0.2219
    1W        W35084  26.956  29.002   0.167 -0.0037  0.1898 -0.0188
    1W        W35085  13.024  14.177   1.273  0.1317  0.0270 -0.0688
    1W        W35086   8.318  22.994   7.662  0.0670  0.1488 -0.0929
    1W        W35087   0.870  12.952   9.332  0.0287  0.2258  0.2566
    1W        W35088  26.689  27.684   6.481  0.3503  0.2826  0.1665
    1W        W35089  26.509  14.934   6.125  0.1577 -0.1954  0.2171
    1W        W35090   7.637  24.935   9.371 -0.2078 -0.0360  0.0146
    1W        W35091  22.842   1.869   2.824 -0.2106  0.0137  0.2165
    1W        W35092  15.030  18.906   1.097  0.0159 -0.1681 -0.0710
    1W        W35093  27.728   1.308   2.149 -0.1261 -0.0791 -0.0945
    1W        W35094   8.269  10.515   1.956 -0.1880  0.1083  0.2329
    1W        W35095  17.555  24.603   7.561  0.1019  0.0389  0.2104
    1W        W35096   8.689   6.995   7.970 -0.1066  0.2427  0.2142
    1W        W35097  27.030   1.204   0.790  0.1598 -0.0191 -0.1208
    1W        W35098  17.753   6.222   0.378  0.1620  0.0147  0.0490
    1W        W35099  19.685   5.312   8.216  0.3678  0.0393  0.1777
    1W        W35100  20.326  20.472   8.059  0.0898 -0.0065 -0.0566
    1W        W35101   8.782  11.868   7.226 -0.0784  0.0970 -0.3581
    1W        W35102   9.250   4.445   9.459  0.0923  0.0195 -0.0329
    1W        W35103  28.231  20.836   8.744  0.0694  0.0240  0.3076
    1W        W35104  23.541  26.993   3.152 -0.2342  0.0868 -0.1130
    1W        W35105  23.729  12.262   9.282  0.1709 -0.2889 -0.3093
    1W        W35106  13.038  18.729   1.465 -0.0364 -0.2053  0.1565
    1W        W35107  24.000  10.510   8.339  0.1187  0.2319 -0.2091
    1W        W35108  25.080   1.792   1.818 -0.1607  0.2224  0.0843
    1W        W35109  10.604  22.417   7.141 -0.0550  0.0917 -0.0807
    1W        W35110  20.157  13.361   0.032  0.2894 -0.0352  0.2845
    1W        W35111  20.193  18.661   1.720 -0.3361 -0.2124 -0.0825
    1W        W35112  15.140  22.649   7.683 -0.2633 -0.0476  0.3706
    1W        W35113   7.478  13.285   7.398  0.1205 -0.0136 -0.1742
    1W        W35114  24.250   2.567   0.757 -0.0116 -0.2074 -0.0216
    1W        W35115   5.894  11.324   1.491  0.1431  0.0617 -0.2141
    1W        W35116  18.570   1.505   3.297 -0.0955 -0.0465  0.1613
    1W        W35117  20.237  26.934   7.707 -0.2041 -0.1135  0.1312
    1W        W35118  22.204  27.452   7.771  0.2135  0.1168 -0.1671
    1W        W35119  25.301  26.122   0.962 -0.0998 -0.0148  0.4188
    1W        W35120  18.327  28.666   8.276 -0.1085 -0.0537  0.3543
    1W        W35121  28.022  13.689   1.840 -0.0213  0.1784  0.0169
    1W        W35122  25.495   1.402   2.788 -0.2451 -0.2879 -0.1136
    1W        W35123  28.065  22.685   1.789 -0.0905 -0.2996 -0.0927
    1W        W35124  22.560   4.504   0.356 -0.2896 -0.0189 -0.1795
    1W        W35125  10.338   8.258   2.132 -0.1986 -0.1286 -0.1748
    1W        W35126  14.056  16.444   8.252 -0.1443 -0.0821  0.4322
    1W        W35127  13.277   0.949   8.588 -0.1060  0.0891 -0.0411
    1W        W35128  22.842  21.147   2.647 -0.0830 -0.0218  0.3959
    1W        W35129   5.514   2.470   9.388 -0.2205 -0.0179  0.1212
    1W        W35130  27.052  17.801   0.724  0.0202  0.3082  0.0320
    1W        W35131  15.324  15.781   8.211  0.1032 -0.1738 -0.1800
    1W        W35132   9.955  17.084   7.784 -0.0354  0.4898  0.0117
    1W        W35133  25.671  28.102   8.726 -0.2333  0.0051  0.0135
    1W        W35134   4.718   0.154   2.712  0.2761 -0.1363 -0.0779
    1W        W35135   3.745  18.928   7.020  0.0391  0.3135  0.2003
    1W        W35136  27.947  13.705   2.376  0.4668  0.0423  0.1470
    1W        W35137   9.429   8.695   9.053  0.3353  0.1819 -0.1568
    1W        W35138   1.337  15.209   6.527 -0.1708 -0.2712 -0.3627
    1W        W35139  17.712  27.540   1.156  0.0517  0.3401  0.0076
    1W        W35140   9.451   4.985   6.878  0.0081  0.1048  0.0886
    1W        W35141  18.186  26.571   7.266  0.0021  0.0320  0.0663
    1W        W35142   2.513  21.941   6.935 -0.2265  0.0423 -0.4060
    1W        W35143  17.398  13.058   7.368 -0.2219  0.2131  0.0392
    1W        W35144  12.843   9.417   7.680 -0.1082  0.1386  0.1337
    1W        W35145  23.879  17.241   6.647 -0.1024 -0.1424 -0.0459
    1W        W35146  14.309   0.424   2.935  0.3359 -0.1848 -0.0323
    1W        W35147  12.166  17.403   7.476 -0.0797 -0.2951 -0.0725
    1W        W35148  14.073  15.126   8.786  0.1934  0.1528  0.0182
    1W        W35149   3.427   8.899   2.475  0.3283  0.3087  0.1689
    1W        W35150   5.927  17.849   6.081 -0.1643  0.0432  0.0434
    1W        W35151  21.955   2.307   2.343  0.0979 -0.2358  0.2781
    1W        W35152  25.627  17.169   1.926 -0.2784 -0.0789 -0.2593
    1W        W35153  16.723  11.508   7.584  0.0567  0.2222 -0.1015
    1W        W35154  25.768  16.797   1.527  0.1768  0.1902 -0.1910
    1W        W35155   9.253  19.370   6.345  0.1765  0.1054  0.0282
    1W        W35156   3.962   2.047   7.101 -0.1597 -0.0370 -0.1409
    1W        W35157  14.717   3.319   0.136 -0.0857  0.0907 -0.0806
    1W        W35158  23.265  21.976   1.983 -0.0705  0.1183 -0.0514
    1W        W35159  12.411   9.286   8.782 -0.1273 -0.0957 -0.1423
    1W        W35160   6.906  10.917   1.961  0.1221 -0.2315 -0.0532
    1W        W35161  22.956  28.085   2.621 -0.0969  0.1972 -0.3523
    1W        W35162  10.889   0.843   2.455 -0.1736  0.0844  0.0453
    1W        W35163  14.714   2.282   8.092 -0.0592 -0.4569 -0.0467
    1W        W35164   6.604  20.043   0.370 -0.0018 -0.0218  0.2070
    1W        W35165  12.842   0.466   2.720  0.0758 -0.2163  0.0294
    1W        W35166   2.944  21.833   6.732 -0.0697 -0.2694  0.2292
    1W        W35167  23.717  13.429   8.602  0.2934 -0.0202 -0.0296
    1W        W35168   5.538  29.129   0.740  0.2504 -0.1566 -0.2687
    1W        W35169   2.405   4.519   0.222 -0.2232 -0.2634 -0.0415
    1W        W35170  17.951  26.807   0.486  0.3000  0.0184 -0.1461
    1W        W35171   3.143   3.074   6.856  0.2388 -0.1992  0.0988
    1W        W35172  26.919  13.583   0.191  0.0220 -0.3643 -0.1512
    1W        W35173  19.015  26.818   6.682  0.2512 -0.3147 -0.3097
    1W        W35174  11.108  13.936   0.316  0.1188 -0.0200 -0.0805
    1W        W35175   9.436   6.591   1.435  0.0782  0.0081  0.0510
    1W        W35176  11.339  18.098   1.698 -0.1851 -0.4055  0.0500
    1W        W35177  15.190  24.460   0.340 -0.0496  0.1404 -0.1084
    1W        W35178  23.894  14.360   2.650 -0.3901  0.2740 -0.1440
    1W        W35179  24.961  16.122   1.605  0.1983 -0.4158  0.1596
    1W        W35180  12.609  19.451   1.882 -0.0439  0.0767 -0.0715
    1W        W35181  27.301  18.356   2.034 -0.2738 -0.4270  0.0281
    1W        W35182  28.837   5.701   7.221  0.0037  0.1692  0.0458
    1W        W35183  19.565  20.557   1.991 -0.1468 -0.2857 -0.1740
    1W        W35184  18.726   4.202   6.626  0.4499  0.0362 -0.0616
    1W        W35185  17.460  26.584   2.648 -0.0214 -0.1631  0.1505
    1W        W35186  17.072  13.278   8.593 -0.0609 -0.1543  0.1403
    1W        W35187   9.127  19.580   6.743 -0.0037  0.0767  0.0026
    1W        W35188  19.829  28.004   9.297  0.0140 -0.0908 -0.2441
    1W        W35189  26.250  28.786   9.244 -0.1137 -0.1016 -0.3665
    1W        W35190  20.961  19.559   1.762 -0.0955  0.1009 -0.0949
    1W        W35191  13.946   5.357   9.236  0.2302  0.0756  0.0617
    1W        W35192  20.563  17.221   1.872  0.3956  0.1616 -0.0100
    1W        W35193  24.928  25.940   7.986  0.3396  0.1088  0.0684
    1W        W35194   3.761   6.249   7.109 -0.1112 -0.0438  0.2145
    1W        W35195   6.405   2.081   0.144  0.0102  0.0962  0.0258
    1W        W35196   5.508   4.919   8.045  0.2259 -0.1429  0.2841
    1W        W35197   5.622   9.540   9.137  0.0995 -0.0668  0.0746
    1W        W35198  10.377  25.464   5.867 -0.0117 -0.1989  0.2588
    1W        W35199   4.876   7.650   9.395  0.1727  0.2073 -0.2043
    1W        W35200   8.633   9.882   0.068 -0.0727 -0.2534  0.0522
    1W        W35201  11.348   0.257   2.792  0.0595  0.0210  0.1206
    1W        W35202  13.250  20.484   0.294 -0.2307  0.4467 -0.0812
    1W        W35203  16.775  16.953   0.074  0.0433  0.4432 -0.3390
    1W        W35204  19.971   2.514   2.773 -0.0334 -0.1876 -0.1640
    1W        W35205   0.381  11.094   1.030 -0.1024  0.0862  0.2303
    1W        W35206   8.984   6.222   1.118 -0.0851  0.1796 -0.1650
    1W        W35207  17.090  24.227   7.283 -0.0113 -0.0027 -0.0670
    1W        W35208   9.235  26.786   0.772  0.0869 -0.0829 -0.1717
    1W        W35209  13.662   2.392   1.809 -0.0538  0.0545 -0.1499
    1W        W35210   8.359   1.458   7.842  0.2684 -0.1889 -0.0702
    1W        W35211  28.942  13.476   7.422  0.2936 -0.0795 -0.1485
    1W        W35212  25.076  20.327   2.786  0.0117 -0.2138 -0.0080
    1W        W35213   5.935  26.352   0.837 -0.1160 -0.1620  0.0032
    1W        W35214   3.202   9.944   2.699  0.3584  0.2071 -0.1639
    1W        W35215  17.413  17.595   8.631 -0.0476  0.1467  0.1911
    1W        W35216   4.243   9.797   1.102 -0.0895  0.2726  0.2351
    1W        W35217  12.566   4.227   7.530  0.2738  0.2632 -0.2287
    1W        W35218  17.748  22.712   2.083  0.0914 -0.1697 -0.0494
    1W        W35219  17.337  24.317   8.250  0.0277  0.1485 -0.0580
    1W        W35220  12.351   4.902   0.819  0.0125  0.3858 -0.1458
    1W        W35221  13.919  13.838   8.915  0.0103 -0.0362  0.1590
    1W        W35222  21.694  16.044   6.313  0.0442  0.1497  0.1942
    1W        W35223  27.807   3.072   0.516 -0.1031  0.1494 -0.0169
    1W        W35224  17.570  15.326   7.135  0.1725  0.0197 -0.0715
    1W        W35225  18.687  20.994   8.473 -0.0879  0.3257  0.0140
    1W        W35226   6.968  27.550   0.221  0.1126 -0.0413  0.0682
    1W        W35227  20.910  18.927   8.153  0.1265  0.0124 -0.1406
    1W        W35228   4.188  25.089   1.318  0.1286 -0.0265 -0.0101
    1W        W35229  29.609   9.097   8.149 -0.0105  0.1726 -0.1548
    1W        W35230   8.565  26.535   2.944  0.2569 -0.0578 -0.0917
    1W        W35231  28.578   4.863   7.719  0.0468 -0.3233 -0.1252
    1W        W35232   5.800  14.049   7.095 -0.0293 -0.0796  0.1798
    1W        W35233  21.876  11.215   6.909 -0.1520 -0.1396  0.1701
    1W        W35234  23.911  11.965   6.696 -0.1027 -0.3079 -0.1983
    1W        W35235   4.225   4.484   2.081 -0.0934 -0.2425 -0.1545
    1W        W35236   2.819  21.224   8.954  0.1409  0.1151  0.1123
    1W        W35237   5.985  10.783   8.736 -0.0099 -0.0618  0.2884
    1W        W35238   2.596  13.220   1.804  0.1438 -0.0551  0.0813
    1W        W35239   8.457  20.283   5.555  0.0986 -0.1289  0.1762
    1W        W35240   2.699  25.100   7.568 -0.1019 -0.0009 -0.0431
    1W        W35241   2.952  28.305   7.238 -0.1650 -0.1088 -0.0711
    1W        W35242  20.450  24.186   9.327  0.0526 -0.1581 -0.0891
    1W        W35243  19.549  28.952   1.032 -0.0302 -0.0008 -0.4958
    1W        W35244  12.871  24.050   6.277 -0.2097 -0.0834  0.1883
    1W        W35245  18.951  16.357   1.401  0.2175 -0.0222  0.1110
    1W        W35246  25.508  17.098   7.575  0.2223 -0.0697  0.0007
    1W        W35247   5.579  10.992   7.862 -0.1194  0.1340 -0.2977
    1W        W35248   2.229  22.165   6.507 -0.0172 -0.1498 -0.2007
    1W        W35249  27.027   2.868   7.498  0.0267 -0.1044  0.0651
    1W        W35250   0.560  14.869   6.997 -0.3128  0.0193  0.3372
    1W        W35251   9.133   7.007   8.416  0.1196  0.2390 -0.0345
    1W        W35252  26.271  29.622   0.346 -0.0170 -0.3498 -0.1148
    1W        W35253  28.214  18.495   6.951  0.0914 -0.1151 -0.2582
    1W        W35254   0.877   9.336   0.864  0.0339 -0.1208 -0.0821
    1W        W35255  18.891   2.997   2.162  0.0186  0.0145 -0.0210
    1W        W35256   2.941  11.064   1.033  0.0385 -0.1243 -0.0435
    1W        W35257   9.393  25.392   1.429  0.2221 -0.1217 -0.0685
    1W        W35258  11.498  12.048   9.266  0.2057 -0.2373 -0.1126
    1W        W35259   1.940  17.551   7.848 -0.1346 -0.2098 -0.0143
    1W        W35260  17.547  28.405   0.903  0.2568  0.0905 -0.1378
    1W        W35261  18.248   8.218   8.191 -0.3121  0.2916 -0.3323
    1W        W35262   2.482  27.010   1.892  0.2070 -0.0870 -0.2244
    1W        W35263  16.034  20.735   8.108  0.0504 -0.1432 -0.0237
    1W        W35264  28.958  10.141   1.698  0.0261 -0.1631  0.1586
    1W        W35265  18.108   1.054   6.896  0.0640  0.1226  0.2294
    1W        W35266  26.238  20.874   1.318  0.1677 -0.0750 -0.0186
    1W        W35267   7.524   0.190   0.325  0.0300  0.2121 -0.2320
    1W        W35268  25.120  17.538   8.303  0.1509 -0.1039  0.1677
    1W        W35269  21.300  17.276   0.307  0.0905  0.1857  0.1950
    1W        W35270  26.187  21.767   0.369  0.1288  0.1559  0.2823
    1W        W35271   4.151   6.709   8.402  0.2757  0.1296  0.0471
    1W        W35272   3.602  17.838   1.672  0.2060 -0.2338 -0.0492
    1W        W35273  15.543  13.371   6.431  0.0494  0.1703 -0.0125
    1W        W35274   5.914  13.818   1.745 -0.1347  0.0594 -0.1523
    1W        W35275   5.168  15.184   1.049 -0.2061  0.3301  0.1539
    1W        W35276   4.426  26.816   8.214  0.0634  0.1003 -0.3355
    1W        W35277   1.043  26.501   7.576 -0.0730  0.0687 -0.1700
    1W        W35278   8.329   9.641   1.947 -0.0707  0.0346  0.0883
    1W        W35279   7.893  28.103   3.005  0.2457  0.1644  0.0279
    1W        W35280  11.381   1.796   8.602 -0.3797 -0.0182 -0.5195
    1W        W35281  24.374  23.323   2.976 -0.1096 -0.2502  0.0399
    1W        W35282  13.094  22.475   7.879  0.2351 -0.0747 -0.0206
    1W        W35283  15.783  22.341   1.969  0.4558  0.1636 -0.1588
    1W        W35284  22.613  17.365   8.537 -0.2755 -0.1707 -0.1813
    1W        W35285   4.207   8.838   8.187  0.2661  0.0844 -0.3050
    1W        W35286  18.368  26.200   7.649  0.0095 -0.2542  0.2378
    1W        W35287  29.044  10.358   9.366  0.0681 -0.1682  0.0359
    1W        W35288  23.988   5.218   2.685 -0.0708 -0.1877 -0.0959
    1W        W35289  26.705   5.119   2.221 -0.2407 -0.1884  0.3030
    1W        W35290   4.142   2.701   3.235  0.3767  0.0969  0.1725
    1W        W35291   9.705   2.770   8.555  0.0448 -0.1720  0.0336
    1W        W35292   0.489  13.618   7.592 -0.2527  0.1656 -0.0037
    1W        W35293   1.767  23.884   5.979 -0.1305 -0.0824 -0.3488
    1W        W35294   9.517   9.251   0.297 -0.3848  0.0324  0.2538
    1W        W35295   6.610  25.051   1.519 -0.1941  0.0409 -0.0860
    1W        W35296   9.196  21.354   0.993 -0.0961 -0.2738  0.0960
    1W        W35297  17.785  20.956   3.029  0.0598  0.4253  0.0871
    1W        W35298  21.223   4.421   8.375  0.0444 -0.1458 -0.0939
    1W        W35299   1.988   1.262   0.815  0.0875 -0.1810  0.2354
    1W        W35300   2.944  13.466   2.237 -0.5783 -0.2551  0.0566
    1W        W35301  11.300  19.731   7.048 -0.1895 -0.1131 -0.1272
    1W        W35302   0.371  20.546   6.364 -0.0329 -0.1823  0.0280
    1W        W35303  16.747  25.177   2.841 -0.0852 -0.3652  0.2462
    1W        W35304  22.636  14.066   1.705 -0.2041  0.0848  0.3099
    1W        W35305  24.838  22.081   2.143 -0.0670 -0.0723  0.2594
    1W        W35306   0.522  23.377   5.567  0.3263 -0.2048  0.3672
    1W        W35307   5.310  28.623   8.162  0.2655  0.0423  0.1853
    1W        W35308   0.641  16.110   9.014  0.1259  0.0649 -0.0847
    1W        W35309   6.096  28.650   7.763  0.4025 -0.0667  0.3778
    1W        W35310  26.762  29.239   7.680 -0.0942  0.0761 -0.4564
    1W        W35311  27.105  13.559   7.850 -0.0429 -0.1558  0.0350
    1W        W35312  20.759  21.514   9.008 -0.0739  0.0158  0.2128
    1W        W35313  27.026  16.573   1.018 -0.1239  0.0727 -0.2369
    1W        W35314   0.948  18.732   0.431 -0.1046 -0.1232 -0.0035
    1W        W35315  23.021  16.805   7.252  0.1394  0.2652  0.0454
    1W        W35316   2.953  21.589   5.827  0.1718 -0.1648 -0.3385
    1W        W35317  25.771  17.205   7.938 -0.1894 -0.2610 -0.0968
    1W        W35318  25.838  29.678   1.327 -0.3181  0.0282  0.1541
    1W        W35319  11.486   9.471   7.854 -0.0344 -0.1285 -0.0988
    1W        W35320   3.242  11.276   6.379  0.0075  0.1796 -0.0430
    1W        W35321   9.115  20.770   7.926 -0.1394  0.0324  0.3160
    1W        W35322  27.376  11.495   0.232  0.4240 -0.0867 -0.3391
    1W        W35323   5.776  26.700   0.254  0.2281  0.2607 -0.3812
    1W        W35324  23.569  12.904   2.468  0.1582 -0.2791  0.0181
    1W        W35325  27.703   6.266   0.373 -0.1572  0.0435  0.0730
    1W        W35326  20.128  11.270   0.227 -0.1588  0.0382 -0.1180
    1W        W35327  14.439  20.162   1.443  0.0959  0.0544 -0.1597
    1W        W35328  27.943  20.647   1.791 -0.1875  0.1454  0.3804
    1W        W35329  21.448   7.040   0.948  0.2157  0.1159  0.1723
    1W        W35330  28.372   6.239   8.503  0.2246  0.0229 -0.0169
    1W        W35331  13.296  17.380   1.079 -0.0515 -0.0585 -0.0351
    1W        W35332  29.403  19.494   7.921 -0.1285  0.3753  0.1861
    1W        W35333   4.308  29.323   8.256  0.0104  0.0565 -0.0237
    1W        W35334   1.579   7.588   1.681 -0.1735 -0.2135  0.2087
    1W        W35335  16.641   2.578   8.128  0.0708 -0.4228  0.2841
    1W        W35336   6.818   0.607   1.265  0.3082 -0.0613 -0.0274
    1W        W35337   0.990  18.756   8.446  0.2108  0.1131 -0.2779
    1W        W35338  21.627  23.075   2.352  0.0964  0.0184 -0.0960
    1W        W35339  10.462  26.846   2.301 -0.0627 -0.0108 -0.0089
    1W        W35340  24.845  22.621   0.367 -0.4678  0.2222 -0.0295
    1W        W35341   0.269   9.506   8.823  0.2511 -0.0528 -0.2737
    1W        W35342  28.519  13.477   1.978  0.1442 -0.0032  0.0676
    1W        W35343   1.176   0.791   2.901  0.2203  0.1823  0.4376
    1W        W35344  19.774   0.763   2.558 -0.0236 -0.0637 -0.0715
    1W        W35345   0.742  10.152   6.526 -0.0557 -0.0413 -0.2935
    1W        W35346  13.542  19.348   8.778 -0.0372 -0.2043 -0.0058
    1W        W35347  29.786  12.435   8.862  0.3057  0.2936  0.3329
    1W        W35348  21.415  24.862   6.612 -0.1468  0.0726  0.0739
    1W        W35349  10.987   2.372   1.241  0.1451 -0.1670 -0.1242
    1W        W35350  21.632  29.581   7.380  0.1219 -0.0779  0.1510
    1W        W35351  27.008   3.971   8.857 -0.0786 -0.4985 -0.2926
    1W        W35352  22.393  13.764   8.011 -0.1795 -0.0886  0.1541
    1W        W35353  24.074  25.891   0.242  0.3793 -0.2676  0.1438
    1W        W35354   2.324   8.744   6.811  0.2883  0.1023 -0.2363
    1W        W35355   9.636   9.270   9.258  0.0860 -0.0184  0.1292
    1W        W35356  16.860  20.395   7.186  0.0505  0.1256 -0.1569
    1W        W35357   4.364  16.906   6.762 -0.0821  0.0467  0.0868
    1W        W35358   5.690  23.723   0.783 -0.1500 -0.0338  0.0854
    1W        W35359  11.252   6.663   2.653 -0.0478 -0.0105 -0.2198
    1W        W35360  11.310  18.348   1.219  0.1393 -0.3068 -0.1772
    1W        W35361  15.672   3.083   1.115  0.2030 -0.2740 -0.0397
    1W        W35362   0.064   0.914   1.187 -0.2013 -0.0597 -0.0829
    1W        W35363   9.021  16.159   8.531  0.1076 -0.0583  0.1305
    1W        W35364  10.047   1.594   9.071  0.0695 -0.2324 -0.1467
    1W        W35365  27.749  20.591   8.812  0.3495 -0.2615  0.0746
    1W        W35366   4.506  13.263   1.596 -0.1420  0.1227  0.1598
    1W        W35367  16.741  16.293   8.769 -0.1415 -0.1559  0.0756
    1W        W35368  23.714   7.316   7.685 -0.2102 -0.2244  0.2579
    1W        W35369   3.681   2.445   3.101  0.0600 -0.1118  0.1266
    1W        W35370  16.487  22.184   0.561 -0.0145 -0.0885 -0.1299
    1W        W35371  27.125  17.650   8.621 -0.0893  0.1139 -0.3993
    1W        W35372  19.592  14.747   7.078  0.2153  0.0969  0.1077
    1W        W35373   7.831  27.461   6.125  0.0220  0.0608 -0.3613
    1W        W35374  27.540   7.722   6.512  0.2567 -0.0548  0.1441
    1W        W35375  26.360   1.089   7.581 -0.0357  0.1741  0.1344
    1W        W35376  19.001  12.688   9.081 -0.0079 -0.3433  0.0459
    1W        W35377  29.278  21.617   6.256  0.3129 -0.0859 -0.3284
    1W        W35378  24.664   4.161   2.374  0.0055 -0.0228  0.0721
    1W        W35379   4.784  24.622   8.823 -0.1882 -0.0555 -0.1103
    1W        W35380   8.722  24.972   8.668  0.0936 -0.0305 -0.3633
    1W        W35381   9.074  26.512   7.277  0.5578  0.1536 -0.3894
    1W        W35382  19.806  24.729   2.919  0.1046  0.0413  0.1886
    1W        W35383   9.707  26.438   2.908 -0.0006 -0.2658  0.0107
    1W        W35384  29.117  12.195   0.713 -0.2771  0.0321  0.0558
    1W        W35385  16.332   1.971   1.553  0.0423 -0.0434 -0.0580
    1W        W35386  19.754  26.280   8.653 -0.0289 -0.2685  0.0700
    1W        W35387   1.765  27.955   0.137 -0.2817  0.0001  0.1368
    1W        W35388  18.098  11.127   1.458  0.0617  0.2983  0.0797
    1W        W35389  18.377  28.647   0.508  0.0577 -0.0094 -0.0260
    1W        W35390  27.792  16.453   1.839  0.1891 -0.0633  0.3476
    1W        W35391  10.816  19.845   6.897  0.0312 -0.4344  0.1325
    1W        W35392   2.668   5.618   1.026  0.0510  0.1076 -0.0279
    1W        W35393   5.372  12.018   1.904  0.1790 -0.1472  0.1584
    1W        W35394   1.907  19.062   5.772  0.1232  0.3071  0.0513
    1W        W35395  11.156   4.243   9.294  0.1308 -0.0327 -0.2507
    1W        W35396   4.347  14.269   6.758  0.0388  0.5120  0.2097
    1W        W35397  14.915  25.093   6.166  0.2178 -0.1176 -0.0442
    1W        W35398  22.577   1.733   2.296 -0.0120  0.2396  0.1287
    1W        W35399   1.744   3.112   6.965  0.1096 -0.1299 -0.0935
    1W        W35400  16.987   7.309   8.093  0.1779 -0.1746 -0.2576
    1W        W35401   3.224  22.105   1.475 -0.0051  0.0097  0.2413
    1W        W35402  29.508   4.875   8.847 -0.0935  0.0500 -0.2494
    1W        W35403  15.578   4.421   0.660 -0.0639 -0.0716  0.2586
    1W        W35404   5.914   5.824   1.033 -0.0407  0.1628 -0.1225
    1W        W35405   8.806  29.062   2.959 -0.1445  0.1736 -0.1822
    1W        W35406  14.370   4.054   8.771 -0.0145 -0.0771 -0.0248
    1W        W35407  17.740  24.366   6.799 -0.1917 -0.1294  0.3898
    1W        W35408  11.607  28.223   8.337  0.0316 -0.2295  0.3010
    1W        W35409  24.092  11.636   0.621 -0.0321  0.1489  0.3392
    1W        W35410  24.744  21.720   9.006  0.2936  0.3509  0.0220
    1W        W35411  25.419  23.501   7.319 -0.3223  0.2319 -0.0029
    1W        W35412  11.361  22.262   1.471 -0.1971 -0.3253 -0.1094
    1W        W35413  10.073  22.668   1.560 -0.0707  0.0761 -0.0691
    1W        W35414  11.098  13.499   9.456 -0.0284  0.1680 -0.1285
    1W        W35415  15.596  16.936   0.944 -0.2468  0.0024  0.0311
    1W        W35416  11.803  20.926   1.159  0.3583  0.0191 -0.1899
    1W        W35417  22.104  23.731   7.412 -0.1449 -0.1014  0.0903
    1W        W35418  27.440   5.899   8.457 -0.1298  0.1345  0.0349
    1W        W35419   0.317  25.258   1.571 -0.0192 -0.2370 -0.1654
    1W        W35420   4.120  20.051   0.675 -0.1626  0.3598  0.0575
    1W        W35421   2.747  11.983   2.343  0.0866  0.0254 -0.1975
    1W        W35422  11.052  12.633   9.032 -0.0609  0.0102 -0.0144
    1W        W35423  21.553   8.560   0.733 -0.1935  0.0124 -0.0850
    1W        W35424  18.666   7.592   6.848 -0.0746 -0.2437  0.2689
    1W        W35425  23.582  17.294   7.134 -0.2127 -0.3986  0.2750
    1W        W35426  19.975   5.724   6.964  0.0235 -0.2205  0.2183
    1W        W35427  20.362  27.675   8.723 -0.1390  0.0434  0.1109
    1W        W35428  26.614  23.609   8.478 -0.3439 -0.1666  0.0548
    1W        W35429   4.418   5.325   2.525  0.0962 -0.1189  0.4438
    1W        W35430   8.253   1.491   7.329  0.0255  0.3516 -0.2536
    1W        W35431   8.048  27.743   0.277  0.0865 -0.0097  0.2165
    1W        W35432   5.594   1.280   8.131  0.3539 -0.0957  0.0787
    1W        W35433  24.789  11.412   7.126  0.0646  0.3336 -0.1220
    1W        W35434  12.946  23.488   6.261  0.3175  0.1311 -0.2051
    1W        W35435  21.085  24.351   3.438  0.0540 -0.2078  0.1323
    1W        W35436  28.966  17.350   0.200  0.1239  0.1340 -0.0419
    1W        W35437   2.048  20.304   1.229  0.0593 -0.1811 -0.1079
    1W        W35438  21.934  10.518   8.048  0.1982  0.1622 -0.5656
    1W        W35439   1.482  25.750   6.663  0.0009 -0.1080  0.0169
    1W        W35440   4.308  22.901   1.917  0.1289  0.1267 -0.1614
    1W        W35441  27.202  14.994   7.717 -0.1339  0.2048 -0.2224
    1W        W35442  10.305   7.857   9.301  0.0024  0.2584 -0.1468
    1W        W35443   4.638  23.023   6.235  0.2056  0.2305  0.0209
    1W        W35444   2.869  10.702   7.265  0.1547 -0.0268  0.2618
    1W        W35445  14.066   5.296   7.181  0.2207  0.2289 -0.0476
    1W        W35446  25.384   6.375   7.082  0.0599 -0.1499 -0.0154
    1W        W35447   6.152  27.170   1.133 -0.4125 -0.1795 -0.0432
    1W        W35448   1.368  12.299   2.987  0.3354 -0.2135 -0.1258
    1W        W35449  23.501   1.322   3.064 -0.2577 -0.0096  0.2902
    1W        W35450  21.098  16.948   0.590 -0.0856  0.1168  0.3224
    1W        W35451  29.204  23.522   8.992  0.0296  0.1710 -0.0732
    1W        W35452  20.622  10.092   1.386 -0.1503  0.1792  0.0701
    1W        W35453  11.515   0.513   0.397 -0.2231  0.0071 -0.0202
    1W        W35454   8.612  19.906   7.811 -0.0756  0.0485 -0.1586
    1W        W35455  24.221  26.434   6.240 -0.1243  0.1909  0.0247
    1W        W35456   9.063  25.747   0.505  0.2273 -0.1145 -0.3575
    1W        W35457  26.713  21.593   0.186 -0.1540  0.0399 -0.2397
    1W        W35458  14.507  25.057   7.868  0.5283  0.2988  0.0094
    1W        W35459  23.417  18.592   2.758 -0.2353 -0.1358 -0.1954
    1W        W35460  28.540   7.900   8.494 -0.3345 -0.1005 -0.2498
    1W        W35461  22.569   4.908   2.911  0.1168  0.0698  0.2576
    1W        W35462   2.643  28.531   6.750  0.1150 -0.0852 -0.0111
    1W        W35463  16.062   8.714   6.375  0.0727 -0.0238 -0.0951
    1W        W35464   3.119  28.204   1.701  0.0851 -0.1296  0.0416
    1W        W35465   7.524  19.173   1.509 -0.0850 -0.0468  0.0645
    1W        W35466  27.595  21.247   6.712 -0.0993  0.2406 -0.0367
    1W        W35467  25.254   5.072   1.996 -0.0736  0.1606  0.0423
    1W        W35468  12.823   2.369   7.845 -0.1144 -0.2457  0.0231
    1W        W35469   6.007   0.923   8.969 -0.0552  0.0909  0.1044
    1W        W35470   3.152  25.161   5.796 -0.2104  0.2021  0.1887
    1W        W35471  28.423   0.767   9.196  0.1350 -0.0709 -0.1866
    1W        W35472   8.911  15.020   1.608  0.2084 -0.0222 -0.0978
    1W        W35473  10.505  13.371   1.676 -0.3117 -0.1612 -0.0711
    1W        W35474   8.180  25.568   0.772 -0.0485 -0.2559 -0.1808
    1W        W35475   2.237  18.266   0.509  0.2224 -0.2354 -0.1289
    1W        W35476  23.090   5.500   1.500  0.2870 -0.3009 -0.0776
    1W        W35477  16.281   4.378   1.844  0.3648 -0.0908  0.0154
    1W        W35478  15.575   5.673   9.305  0.3180  0.4186 -0.0931
    1W        W35479  17.222   2.884   1.664 -0.0449  0.0800  0.0939
    1W        W35480  24.528   4.558   2.110 -0.3341  0.1089  0.2626
    1W        W35481   2.373   1.810   8.083 -0.1870  0.3278 -0.1374
    1W        W35482   1.772   9.528   2.861  0.1043  0.1549  0.0169
    1W        W35483  27.204   9.998   8.444 -0.0982  0.2219  0.1162
    1W        W35484  15.332  17.862   8.540  0.0504  0.0455 -0.1894
    1W        W35485   7.782  10.259   0.414  0.0591 -0.0156 -0.0173
    1W        W35486   6.768   2.702   7.636  0.0139  0.0981 -0.0289
    1W        W35487  20.031  17.055   1.639 -0.1249  0.1481  0.1987
    1W        W35488   4.651   6.338   1.083  0.1790  0.2005  0.3876
    1W        W35489  11.918  14.534   0.715  0.1161 -0.0986 -0.1307
    1W        W35490   8.839   1.316   0.333  0.0900  0.2148  0.0866
    1W        W35491  11.472  28.479   9.348 -0.0452  0.1085 -0.1673
    1W        W35492  20.908   2.114   1.080  0.1743 -0.0097  0.1345
    1W        W35493  11.110   1.220   9.350 -0.0892 -0.0101  0.2355
    1W        W35494  23.982   3.236   0.414 -0.1479 -0.4993 -0.3411
    1W        W35495  25.866   5.547   7.425 -0.0102  0.2258 -0.3400
    1W        W35496  13.589  21.964   2.075 -0.1965  0.2338 -0.1375
    1W        W35497   6.737  13.884   8.867 -0.1212 -0.1828  0.1596
    1W        W35498  28.855  10.535   7.210  0.0074  0.0627  0.1731
    1W        W35499   7.833   0.958   1.975  0.3060  0.3776  0.2506
    1W        W35500  24.960   1.980   8.185 -0.1398 -0.0211  0.0635
    1W        W35501  16.790   5.684   2.493  0.0776  0.1228  0.1456
    1W        W35502  25.292  21.179   2.268 -0.0898  0.0675  0.0683
    1W        W35503   1.376   6.026   1.732  0.0224  0.0984  0.1165
    1W        W35504  28.579  15.606   0.346 -0.1336 -0.0348 -0.1146
    1W        W35505  20.153   8.304   0.246 -0.1713  0.1419 -0.3278
    1W        W35506   3.071  11.760   1.907  0.1244 -0.0045 -0.1014
    1W        W35507   0.413  16.205   1.088  0.2048 -0.1011  0.0485
    1W        W35508  19.013   6.314   7.570 -0.1171 -0.0238  0.1567
    1W        W35509   3.428  16.922   6.584 -0.2512 -0.0349  0.0235
    1W        W35510  26.126   0.889   0.999 -0.1622  0.0905 -0.0839
    1W        W35511   6.308   5.007   8.061 -0.3012 -0.1825  0.0388
    1W        W35512  27.220   2.842   1.993 -0.0837 -0.4699 -0.1816
    1W        W35513   4.002   1.325   0.990  0.1462  0.0358  0.0905
    1W        W35514  26.300  21.779   8.737  0.0192 -0.4414  0.3036
    1W        W35515  17.190   4.825   9.345  0.1485 -0.0803 -0.1817
    1W        W35516  16.217  17.731   8.119  0.0142  0.2212  0.1198
    1W        W35517  11.631   1.855   2.765  0.1185  0.0297 -0.1094
    1W        W35518  21.259  12.146   1.572  0.0500  0.1411  0.4569
    1W        W35519   2.732  24.933   8.054  0.1027 -0.0933  0.4165
    1W        W35520  27.664  15.860   7.126 -0.0817 -0.0078  0.2017
    1W        W35521  19.033  18.734   0.457 -0.2903 -0.3591 -0.1433
    1W        W35522  26.540   9.051   1.345 -0.1085 -0.0676 -0.2899
    1W        W35523  11.885  23.082   5.912 -0.2081  0.1451  0.0174
    1W        W35524  16.572  29.417   6.952 -0.1258 -0.1073  0.0135
    1W        W35525  12.650  28.177   1.096 -0.1259  0.3481  0.0569
    1W        W35526  18.635   9.225   2.607 -0.0090  0.1125 -0.3077
    1W        W35527  15.018  13.065   8.371  0.1085  0.0541  0.0008
    1W        W35528   9.812  18.227   0.435 -0.5229  0.0869 -0.2123
    1W        W35529   5.203  16.885   7.162 -0.1482 -0.1018  0.1969
    1W        W35530   5.745  18.165   7.802  0.0432 -0.1248  0.0257
    1W        W35531  11.288  21.977   0.413 -0.3186  0.0212 -0.0770
    1W        W35532  28.439   7.371   6.824 -0.1368 -0.1382  0.0679
    1W        W35533   7.529  20.295   6.939  0.1260 -0.2433 -0.0867
    1W        W35534  12.463  24.696   1.373  0.1892  0.0287 -0.1750
    1W        W35535  20.086  27.066   1.422 -0.1058  0.1234 -0.0277
    1W        W35536   6.361  16.937   8.172 -0.0623  0.0120 -0.4652
    1W        W35537  22.274  24.772   6.821 -0.0900  0.0741  0.1639
    1W        W35538  24.125  27.130   7.506  0.0353 -0.0118 -0.0321
    1W        W35539   2.485  13.533   6.890 -0.1318  0.1616  0.1812
    1W        W35540  14.478  28.295   7.457  0.2251  0.0997 -0.0780
    1W        W35541  25.252  22.828   1.737  0.1165  0.2712  0.4560
    1W        W35542  26.627  20.213   6.578  0.0359  0.0673 -0.1738
    1W        W35543  11.187  16.927   0.442  0.4608 -0.1062  0.1423
    1W        W35544  25.739  20.000   6.403  0.1713 -0.0612 -0.1932
    1W        W35545  10.610   2.680   1.157  0.0944 -0.0100 -0.0047
    1W        W35546   5.413   6.823   7.338  0.0019  0.3124 -0.1585
    1W        W35547  13.727  14.453   8.581  0.0088 -0.1661  0.3187
    1W        W35548  10.382  15.565   0.931  0.3443 -0.0877 -0.2131
    1W        W35549   9.076  20.534   1.136 -0.0553  0.0335  0.2226
    1W        W35550   3.181  28.115   0.463  0.0904 -0.1083 -0.1472
    1W        W35551  22.403   2.484   2.530  0.0503  0.3244  0.0761
    1W        W35552   8.667   6.575   1.332  0.2237  0.1205  0.1942
    1W        W35553  23.197  26.353   6.785 -0.0947 -0.0590  0.0881
    1W        W35554  14.871  14.272   1.448  0.1283  0.1770  0.0062
    1W        W35555   3.689   7.398   8.687 -0.0224 -0.0234  0.4926
    1W        W35556   5.035  29.130   1.699  0.0525  0.1943 -0.0140
    1W        W35557   1.105  10.422   2.289  0.0559  0.0822 -0.2081
    1W        W35558  13.769  16.716   0.723  0.2840 -0.2605 -0.2636
    1W        W35559  23.788   4.276   8.593  0.0235 -0.1394 -0.0751
    1W        W35560  11.696   6.820   1.565 -0.3958 -0.1205  0.0205
    1W        W35561   5.924   3.856   8.433  0.3890  0.1602  0.3486
    1W        W35562  25.761  25.842   2.110  0.1528  0.0771 -0.0229
    1W        W35563   1.168  29.223   1.038  0.0494  0.0844 -0.0676
    1W        W35564  16.076  22.934   9.059  0.0345 -0.0209  0.1040
    1W        W35565  22.043   4.793   8.202  0.0491  0.0290  0.3812
    1W        W35566   9.231  21.642   1.466 -0.1738 -0.3473  0.0297
    1W        W35567   0.206  27.958   2.512 -0.1004  0.0580 -0.1270
    1W        W35568   6.151  20.641   8.288 -0.0550  0.2102  0.1377
    1W        W35569  10.092  21.898   1.101  0.1710 -0.1083 -0.0267
    1W        W35570  28.087   6.049   7.661 -0.5066  0.1753 -0.3569
    1W        W35571  18.447  15.352   7.492 -0.0791 -0.0506 -0.0815
    1W        W35572  21.006  12.266   7.951 -0.0928 -0.0251 -0.2108
    1W        W35573  11.105  24.168   0.531  0.2652 -0.3932 -0.2565
    1W        W35574  25.224   7.042   0.230 -0.1953  0.0641 -0.2099
    1W        W35575   4.784  14.666   8.480  0.0578 -0.3707  0.0428
    1W        W35576   0.036  21.588   1.817 -0.1897  0.1465  0.0193
    1W        W35577   5.341   3.370   2.882 -0.0417 -0.0072  0.1751
    1W        W35578  11.068  27.793   3.217  0.4245 -0.0459  0.0582
    1W        W35579  21.909  27.015   7.920  0.1367  0.0203  0.2439
    1W        W35580   7.226  20.067   1.342 -0.0500 -0.0453  0.0764
    1W        W35581   2.492   6.503   2.974 -0.1156 -0.0738 -0.1594
    1W        W35582  27.102  29.190   1.864  0.1201 -0.1275  0.2287
    1W        W35583  12.949   3.020   6.800  0.1761  0.1396 -0.0961
    1W        W35584   7.034  14.259   2.427  0.1084 -0.4262 -0.0070
    1W        W35585  10.045  19.454   9.243  0.1825  0.0089  0.1228
    1W        W35586  20.899   0.313   9.170 -0.0059  0.3077  0.0403
    1W        W35587  29.446   8.566   0.726 -0.3970 -0.2342  0.2756
    1W        W35588  15.937  18.432   6.950 -0.0184 -0.0479  0.0603
    1W        W35589  21.627  12.552   8.956  0.0288  0.2614 -0.2085
    1W        W35590   6.854  18.587   1.024 -0.1390  0.2829  0.2161
    1W        W35591  21.344   8.103   0.857  0.2207 -0.3431  0.0262
    1W        W35592   2.336   8.660   0.028  0.1797 -0.1303  0.0575
    1W        W35593  18.147  12.358   0.690 -0.1137 -0.2899  0.0728
    1W        W35594   0.570  16.091   0.042 -0.0333 -0.0360  0.4777
    1W        W35595  16.644   8.456   1.302 -0.0110  0.1097  0.0642
    1W        W35596   7.905  18.844   8.863 -0.3080  0.0797 -0.1421
    1W        W35597  14.552  18.024   9.429 -0.1510 -0.3199  0.0575
    1W        W35598  16.623  29.145   2.042 -0.0838  0.0593  0.1868
    1W        W35599   5.867   9.048   0.957 -0.4245  0.0153  0.0246
    1W        W35600  17.749  16.655   7.222 -0.1994  0.0097 -0.0880
    1W        W35601   5.271  11.993   8.801 -0.1187 -0.1446  0.1065
    1W        W35602  28.391  20.259   7.192 -0.2151  0.1212 -0.0882
    1W        W35603  15.018   6.305   3.130  0.0509 -0.1439 -0.1918
    1W        W35604   1.721  11.836   2.206  0.0722 -0.1477  0.2935
    1W        W35605  20.038   5.862   2.119  0.2412 -0.1209 -0.2111
    1W        W35606   2.102  23.147   6.233  0.2447  0.1987  0.0811
    1W        W35607  12.565   4.186   0.311  0.0300 -0.1250  0.3587
    1W        W35608   6.285   0.240   1.578  0.0962  0.2734  0.0895
    1W        W35609  20.533   7.966   0.415 -0.1352  0.0153 -0.2925
    1W        W35610   5.808  20.150   7.133  0.0194 -0.0025  0.2562
    1W        W35611  13.003  17.489   2.232 -0.3139 -0.2674 -0.0843
    1W        W35612  28.623   9.204   8.783 -0.1162 -0.1448 -0.0792
    1W        W35613  16.028  28.138   1.390  0.0626  0.0728  0.1272
    1W        W35614   3.368   1.727   7.864  0.0111  0.0380  0.4068
    1W        W35615  21.375  14.802   0.774 -0.1438  0.1825  0.1937
    1W        W35616  19.012  26.442   8.492 -0.0703  0.0332 -0.1150
    1W        W35617   5.968   2.886   7.112 -0.0471 -0.0992  0.0796
    1W        W35618   1.274  19.176   1.234  0.3314 -0.1909  0.2895
    1W        W35619   0.931  24.999   8.530  0.0869  0.2705 -0.1489
    1W        W35620  23.798   3.707   0.528 -0.1457  0.1386 -0.0027
    1W        W35621   0.089   6.190   0.236  0.0070 -0.0628  0.1160
    1W        W35622  28.417  27.346   1.600 -0.0096 -0.0349  0.0299
    1W        W35623   4.788  28.676   0.890 -0.1303  0.1539 -0.2751
    1W        W35624   3.685   1.026   2.666  0.1120  0.1824 -0.1143
    1W        W35625  23.893  25.088   9.444 -0.1780  0.0289  0.0875
    1W        W35626  16.000   2.105   7.657  0.0651  0.0183 -0.0613
    1W        W35627   0.045   8.573   9.052 -0.0921  0.3860 -0.1479
    1W        W35628  11.919  28.688   8.099 -0.0965  0.1269  0.1182
    1W        W35629   5.206   0.085   7.097  0.1006 -0.0007 -0.0336
    1W        W35630   9.183  15.033   6.296 -0.2664 -0.1484  0.0389
    1W        W35631  21.800   6.414   7.366  0.1124 -0.0907 -0.0231
    1W        W35632   5.757   2.813   8.477 -0.1643 -0.0659  0.0189
    1W        W35633  28.398  21.477   2.208 -0.2062  0.3002 -0.2911
    1W        W35634  17.018   8.858   1.189 -0.0797  0.3291  0.3747
    1W        W35635   9.883  17.098   9.115 -0.1230  0.0316  0.0013
    1W        W35636   4.197  12.422   6.825 -0.2452 -0.0647 -0.1576
    1W        W35637  14.268  17.140   9.373  0.0954  0.1962 -0.1295
    1W        W35638  12.754  29.544   9.173 -0.1773  0.1713  0.0535
    1W        W35639  25.009  25.408   6.563  0.0406  0.1328  0.1514
    1W        W35640  26.992   0.335   1.411 -0.0253  0.0742  0.3680
    1W        W35641  21.727   2.829   0.436  0.3788 -0.2085 -0.3800
    1W        W35642   8.758  26.022   2.307 -0.2071  0.0854  0.0521
    1W        W35643   6.002  21.428   9.393 -0.0244 -0.0193 -0.0219
    1W        W35644  19.613  20.121   8.867  0.0216  0.2322 -0.1424
    1W        W35645  24.222  14.312   7.598  0.0957 -0.0122  0.0345
    1W        W35646  22.854  17.694   1.412 -0.3790  0.0472  0.0538
    1W        W35647  18.119  27.540   2.407  0.1228 -0.3749 -0.2955
    1W        W35648  21.525   7.549   9.213  0.0287  0.2615 -0.2000
    1W        W35649  15.398  25.954   8.714  0.3900 -0.2004  0.1134
    1W        W35650  17.731  19.672   0.365  0.1543 -0.0445 -0.0156
    1W        W35651  13.955  14.992   7.960 -0.0730  0.0769  0.1126
    1W        W35652  13.710  18.990   7.761  0.0693 -0.0518 -0.2387
    1W        W35653  12.872  11.396   8.324  0.2189  0.5722 -0.5372
    1W        W35654   0.050   0.102   7.501  0.0273  0.1365  0.1786
    1W        W35655  18.240  27.349   0.439  0.0885  0.2731  0.1671
    1W        W35656   6.955  19.821   1.716 -0.0978  0.0916  0.1892
    1W        W35657  11.095  11.572   7.995 -0.1354  0.2361  0.1489
    1W        W35658  14.141  17.384   1.268 -0.2575  0.0069  0.1101
    1W        W35659  22.008   6.070   1.051 -0.1648  0.0241  0.0097
    1W        W35660   3.438  15.357   1.548 -0.0884  0.0186  0.1093
    1W        W35661   0.865  24.794   9.203 -0.1427 -0.1930  0.0292
    1W        W35662  17.164  19.783   2.289  0.2028  0.0487 -0.1792
    1W        W35663  17.069  21.108   2.058 -0.1861 -0.1485 -0.0100
    1W        W35664   8.411  28.214   0.349  0.0189 -0.1139  0.2877
    1W        W35665  29.087  25.355   6.717  0.0665 -0.2674 -0.0245
    1W        W35666  10.055  28.569   3.341 -0.1139  0.0958  0.2262
    1W        W35667   0.427  16.634   8.224  0.2153  0.0231 -0.0362
    1W        W35668  10.224  23.920   1.996 -0.2107 -0.0536  0.1457
    1W        W35669  10.856  26.860   1.479 -0.0081 -0.0751 -0.3132
    1W        W35670   3.638  11.782   6.684 -0.2644 -0.0044  0.0209
    1W        W35671  12.449  25.922   1.488 -0.1529  0.0966 -0.4698
    1W        W35672  20.937  23.905   8.722  0.0838  0.0060  0.0818
    1W        W35673  23.045  17.424   0.289 -0.1159  0.0958 -0.0218
    1W        W35674  27.298   7.117   0.207  0.1638 -0.1617  0.1020
    1W        W35675   2.424   7.043   1.240  0.1913  0.0393 -0.0778
    1W        W35676   1.677  21.347   6.884 -0.3395 -0.0776 -0.1545
    1W        W35677  16.099  12.306   9.004  0.0890 -0.0328  0.1094
    1W        W35678   1.433   0.136   1.540  0.1344 -0.0340  0.0220
    1W        W35679   5.864  28.127   7.183 -0.0424  0.0921 -0.1503
    1W        W35680   7.198  24.305   8.148 -0.2375  0.0223  0.0450
    1W        W35681  15.631  22.796   0.651 -0.1784  0.3460 -0.0415
    1W        W35682  24.219   1.885   0.276 -0.0756 -0.1169  0.0919
    1W        W35683  10.104   1.860   6.917 -0.3573 -0.1197 -0.1436
    1W        W35684  16.356  15.545   9.446 -0.3249  0.1198 -0.0163
    1W        W35685   7.586   5.690   2.212  0.1655 -0.1155 -0.3155
    1W        W35686  29.461  10.176   1.468  0.2475 -0.2165  0.2114
    1W        W35687  11.127  15.565   0.350 -0.2344 -0.0986  0.1566
    1W        W35688   2.045  13.891   9.276  0.2749 -0.0377 -0.1100
    1W        W35689  24.094  22.071   6.543 -0.0007  0.1982 -0.0224
    1W        W35690   3.578   7.820   3.448  0.1659 -0.2424  0.2704
    1W        W35691   6.143   5.684   1.418 -0.4009  0.2250 -0.2733
    1W        W35692  17.081  18.986   0.590 -0.1079 -0.0951 -0.0969
    1W        W35693  21.086   0.090   1.213 -0.3216  0.0068 -0.1002
    1W        W35694  26.174   4.223   7.777 -0.0411 -0.2838 -0.1044
    1W        W35695   9.895   4.470   8.201  0.0675 -0.1696 -0.2503
    1W        W35696   7.168   5.498   8.492  0.2052  0.1338  0.0621
    1W        W35697  19.601  25.842   1.275  0.1013 -0.2134  0.0689
    1W        W35698   3.915  11.473   8.081  0.0738 -0.0732 -0.0632
    1W        W35699   0.415   7.740   7.724  0.0661  0.2268 -0.1889
    1W        W35700  27.326   2.364   2.099  0.0882 -0.2638 -0.1170
    1W        W35701   7.260  26.162   0.473  0.0583 -0.3221  0.2261
    1W        W35702  11.025  20.828   1.981  0.2843 -0.3836 -0.0476
    1W        W35703  29.433  12.124   8.604 -0.2951  0.0065 -0.0016
    1W        W35704  11.182  28.127   8.712  0.3169  0.4907 -0.0966
    1W        W35705  21.055  18.612   0.268  0.2849 -0.1749 -0.0322
    1W        W35706  14.560  25.874   1.135 -0.0633 -0.0693  0.0797
    1W        W35707  17.577  24.603   8.586  0.1609 -0.1493 -0.0644
    1W        W35708  28.520  22.226   1.067 -0.1989 -0.0163  0.0580
    1W        W35709   3.338   6.404   2.778  0.2704 -0.1621  0.0508
    1W        W35710  22.958   5.021   1.340  0.0737 -0.3667  0.1712
    1W        W35711  25.631   2.799   0.189 -0.0907 -0.1466 -0.3565
    1W        W35712  13.126  18.321   1.771 -0.0719  0.0217 -0.0404
    1W        W35713   3.005   2.804   2.509  0.3511  0.2479  0.0513
    1W        W35714  19.265  26.320   9.388  0.1873  0.2133 -0.0183
    1W        W35715  24.414  14.829   0.529 -0.2218  0.0382 -0.3550
    1W        W35716   0.129  17.876   7.644 -0.3840 -0.0364  0.1071
    1W        W35717   4.811   6.804   6.721 -0.0540 -0.2591  0.0938
    1W        W35718   2.532  13.724   9.106  0.2339  0.0936 -0.1707
    1W        W35719   1.103  14.184   2.570  0.1445  0.3372  0.3947
    1W        W35720   3.629  19.482   1.180  0.0648 -0.1131 -0.0937
    1W        W35721  17.086   3.803   9.044 -0.1978  0.0871  0.0436
    1W        W35722  27.160  26.704   1.256 -0.0209 -0.0507 -0.4472
    1W        W35723  17.899   3.811   2.358  0.3637 -0.0965 -0.1240
    1W        W35724  29.744   1.183   3.233 -0.2752 -0.2068  0.3108
    1W        W35725  24.352  26.606   7.714 -0.0110 -0.1571 -0.1508
    1W        W35726  14.614  10.445   8.547  0.1885  0.4761  0.2220
    1W        W35727  21.297  16.512   6.976 -0.0419  0.0231  0.2217
    1W        W35728  23.363  22.561   3.712 -0.0960 -0.1321  0.2820
    1W        W35729   6.412  29.202   0.507 -0.1526  0.2261  0.0433
    1W        W35730   2.820  17.403   2.398  0.2068  0.3997  0.1726
    1W        W35731  20.487   2.366   8.561  0.0077  0.2798 -0.1742
    1W        W35732   4.501  17.533   6.076  0.0958  0.0905 -0.1321
    1W        W35733  19.796  12.486   9.238 -0.0681 -0.2548  0.2867
    1W        W35734  23.505   8.251   7.990 -0.4072 -0.2564  0.1305
    1W        W35735  16.876  13.095   7.227  0.1383 -0.0439  0.0833
    1W        W35736   8.104  23.879   8.912 -0.0639 -0.4198 -0.0253
    1W        W35737  21.091   4.317   7.696 -0.1462  0.2263 -0.2628
    1W        W35738  24.628  29.519   2.012  0.1941  0.1896 -0.1354
    1W        W35739   8.115   4.879   0.936 -0.2813  0.0278  0.1745
    1W        W35740   6.582  27.984   1.387 -0.0944 -0.0837  0.0188
    1W        W35741   1.540   3.213   2.114 -0.0828 -0.1721 -0.1906
    1W        W35742   7.876   8.715   2.980  0.0892  0.4302  0.3523
    1W        W35743  18.234  25.066   0.485  0.1201  0.1336  0.1868
    1W        W35744  26.585  17.970   9.427  0.2064 -0.2697  0.1955
    1W        W35745  15.753  27.428   2.085  0.0693  0.0155  0.0642
    1W        W35746  29.321   0.047   2.042  0.0502  0.0334  0.0467
    1W        W35747   4.771  25.201   6.022  0.0446 -0.1224 -0.0053
    1W        W35748   0.465   9.945   9.080 -0.0280  0.1294  0.0177
    1W        W35749   8.193   6.022   1.726  0.1234 -0.2040 -0.1454
    1W        W35750  29.593   9.058   6.508 -0.1092 -0.0600 -0.2057
    1W        W35751  23.454   9.558   1.229  0.1984 -0.0624 -0.1334
    1W        W35752   7.151  29.109   9.322  0.1413  0.0801 -0.3763
    1W        W35753   9.452  24.363   8.833  0.2246 -0.0479 -0.1589
    1W        W35754  26.965   6.155   8.587  0.1238  0.3484 -0.1528
    1W        W35755  16.405  11.418   2.125 -0.0440  0.0782  0.3236
    1W        W35756  21.151  20.336   0.587  0.1183 -0.0938  0.2734
    1W        W35757  16.169  29.355   3.404  0.0797 -0.2033 -0.1658
    1W        W35758  10.813  26.937   3.077 -0.1213 -0.0378 -0.0588
    1W        W35759   4.282  20.805   0.152  0.1115  0.1137 -0.2197
    1W        W35760   5.530  29.754   2.453  0.1383 -0.0331 -0.0461
    1W        W35761   7.365   5.457   1.800 -0.0907 -0.3546  0.4148
    1W        W35762  21.236  10.902   9.083 -0.2706 -0.0502  0.1129
    1W        W35763   0.198   1.881   0.663  0.1161  0.4747 -0.2647
    1W        W35764   3.393  19.248   7.024  0.3850 -0.2049 -0.1174
    1W        W35765  25.315   5.396   7.635  0.0746  0.2172 -0.5400
    1W        W35766  29.466   6.288   1.722  0.1886 -0.1095 -0.0287
    1W        W35767   5.213  13.215   1.110 -0.0213  0.2402 -0.0293
    1W        W35768   0.075  24.431   2.103 -0.2481 -0.2136  0.2011
    1W        W35769   1.323  15.033   2.302  0.1926 -0.0223  0.3292
    1W        W35770   1.733  26.293   8.292 -0.1241  0.0695  0.2773
    1W        W35771   0.881  25.286   0.067  0.2759  0.0802 -0.1192
    1W        W35772  24.140  17.561   0.423  0.0487 -0.1827 -0.0627
    1W        W35773  12.980  28.151   9.078  0.0952  0.2033  0.1301
    1W        W35774   6.908   6.381   1.275 -0.1830  0.5978 -0.1314
    1W        W35775   5.965  25.703   9.114  0.4610  0.0135 -0.0571
    1W        W35776  23.969  15.126   7.715  0.0953 -0.2319  0.0672
    1W        W35777   1.332   1.631   7.125 -0.1326 -0.1588 -0.0303
    1W        W35778   0.767   3.387   1.473  0.2295  0.2251  0.1399
    1W        W35779   5.616   2.001   1.347  0.0065  0.3234  0.0626
    1W        W35780  12.762   1.141   8.553  0.0722 -0.1507 -0.3504
    1W        W35781   5.345  27.067   9.384  0.2128 -0.0818  0.1819
    1W        W35782   5.379  15.551   0.734 -0.0409 -0.2237  0.0910
    1W        W35783  20.717   9.885   0.245 -0.1048  0.0965 -0.0700
    1W        W35784  28.912  22.639   7.797 -0.2270  0.1655 -0.0797
    1W        W35785  25.979   3.875   0.582  0.1127  0.0455  0.1996
    1W        W35786  10.741   8.613   0.896  0.1914 -0.0811 -0.2620
    1W        W35787  19.237  11.674   1.584  0.0688 -0.3620  0.1260
    1W        W35788  26.518  19.251   0.599  0.0688  0.1070 -0.1434
    1W        W35789   5.406  12.339   8.278 -0.0271  0.0641  0.2109
    1W        W35790  13.342   5.326   1.615 -0.0300 -0.0303  0.2635
    1W        W35791  13.690  23.584   0.959 -0.2185 -0.0194 -0.0719
    1W        W35792  13.666   1.738   6.668 -0.0438 -0.0186  0.0388
    1W        W35793   6.959  23.731   1.520 -0.0270  0.2383 -0.1372
    1W        W35794  27.445  15.537   0.402 -0.1213  0.0392 -0.2195
    1W        W35795  15.312   3.652   8.321  0.1911 -0.1578  0.0139
    1W        W35796  12.604  29.682   3.585 -0.0483  0.0054 -0.1301
    1W        W35797  18.584  14.662   8.246  0.0956  0.1066 -0.3397
    1W        W35798  16.685  15.997   0.495  0.0600 -0.0803  0.0281
    1W        W35799  10.752  28.837   2.556  0.0466 -0.4564  0.2531
    1W        W35800  13.269   5.581   8.498  0.1248 -0.2210  0.0692
    1W        W35801  19.193  11.014   8.630  0.0950 -0.1248  0.1703
    1W        W35802   7.366  11.468   2.430 -0.1509  0.3085  0.2515
    1W        W35803  18.282  29.112   7.385 -0.0172 -0.1049 -0.0924
    1W        W35804  14.817   1.111   3.342 -0.0146  0.1150 -0.0118
    1W        W35805  11.930  11.495   2.809 -0.4028  0.0501  0.1134
    1W        W35806  15.805  12.629   0.375 -0.3619 -0.2469 -0.0663
    1W        W35807   6.687  11.188   7.728  0.0273 -0.2231 -0.0820
    1W        W35808   4.901  17.886   8.980  0.0791 -0.0878  0.4812
    1W        W35809  22.226  14.306   1.749  0.2205 -0.0885 -0.0971
    1W        W35810  11.301   3.901   1.261  0.1223 -0.0894 -0.0347
    1W        W35811  15.452   4.823   0.307  0.0149 -0.1419  0.0690
    1W        W35812   2.977  17.199   1.939 -0.1707  0.1273 -0.1092
    1W        W35813   5.648  29.519   2.892 -0.0052  0.0234 -0.0054
    1W        W35814  28.907  27.360   1.854  0.0641  0.0272  0.3495
    1W        W35815  20.854   1.505   7.753 -0.1247  0.0557  0.1244
    1W        W35816  17.732   1.863   8.641 -0.1332  0.1278  0.0540
    1W        W35817   6.114  22.361   6.119 -0.0945  0.0782 -0.1137
    1W        W35818   0.572  29.603   8.496  0.3038 -0.1746  0.2112
    1W        W35819   5.949  27.176   1.640 -0.0697 -0.0129 -0.1085
    1W        W35820  29.682  10.669   7.358  0.4070 -0.2968 -0.3566
    1W        W35821   2.140  23.181   1.621 -0.0628 -0.0637 -0.0914
    1W        W35822  12.878  19.796   7.784 -0.1211 -0.1366  0.0911
    1W        W35823   0.104  15.755   7.043 -0.2138  0.0691 -0.3651
    1W        W35824   2.919   5.852   8.824  0.2891 -0.1130 -0.1638
    1W        W35825   7.466  21.213   8.411  0.1738  0.2201 -0.0059
    1W        W35826  13.711  24.272   7.516  0.0825 -0.2541  0.3161
    1W        W35827   8.225   1.871   2.299  0.0342  0.1005  0.0028
    1W        W35828   3.520  23.407   2.433 -0.2337 -0.0216 -0.0117
    1W        W35829  10.394  19.751   8.342 -0.2517 -0.3394  0.2077
    1W        W35830  23.394   7.061   1.350 -0.1548 -0.2962  0.1856
    1W        W35831  13.058  21.056   7.499 -0.1064  0.1197 -0.1004
    1W        W35832   4.039  11.392   2.392  0.2019  0.2325  0.1176
    1W        W35833  17.484   5.825   8.027 -0.1476 -0.2609 -0.0503
    1W        W35834  15.389  11.461   8.321  0.4128 -0.0370 -0.1681
    1W        W35835  13.717   3.131   8.744  0.1005  0.0290  0.1482
    1W        W35836  28.778  24.688   7.978  0.0646 -0.0000  0.0693
    1W        W35837   7.293  21.455   1.379  0.4732  0.0344  0.1260
    1W        W35838   3.050  19.580   7.411 -0.0661 -0.0404 -0.3234
    1W        W35839   4.853  28.580   2.165  0.0282 -0.1653  0.1152
    1W        W35840  28.626  24.731   1.691 -0.0262  0.1610  0.0055
    1W        W35841  15.697   5.287   0.372 -0.0514  0.2295  0.0258
    1W        W35842   9.109  16.698   1.883  0.3820  0.1197 -0.1245
    1W        W35843  19.650   1.644   7.054 -0.3657 -0.1615  0.1827
    1W        W35844   2.522  25.966   8.334  0.0165 -0.2226  0.2442
    1W        W35845   1.370  22.598   6.926  0.0210  0.2096 -0.1012
    1W        W35846   8.895   8.821   0.591  0.1904 -0.2090 -0.1035
    1W        W35847  13.605   2.378   1.205 -0.2443  0.1093 -0.1401
    1W        W35848  19.331  10.097   1.729 -0.0567  0.3226  0.1180
    1W        W35849  10.501   0.919   7.359  0.3836  0.0167 -0.2316
    1W        W35850   4.534  12.505   1.107 -0.1649  0.0703 -0.0114
    1W        W35851  22.636  16.110   1.135  0.2355 -0.0066  0.0158
    1W        W35852  21.899  11.580   8.482 -0.1754 -0.2850  0.0928
    1W        W35853  16.549   9.232   7.747  0.1782 -0.0392 -0.1407
    1W        W35854   8.901  18.877   7.707  0.0877  0.0167  0.4548
    1W        W35855   4.946  20.515   8.720  0.0671 -0.1073  0.0642
    1W        W35856  11.496  17.837   1.095  0.0207 -0.1413  0.0029
    1W        W35857  11.687  27.109   6.902 -0.0280 -0.0251  0.2222
    1W        W35858  28.875  15.620   1.066  0.3669 -0.1628 -0.1678
    1W        W35859  22.379   5.978   1.477  0.0620 -0.0950  0.0363
    1W        W35860   5.171   8.412   0.891  0.0589  0.1338  0.3484
    1W        W35861  11.950  13.299   7.990  0.1802 -0.0741 -0.1235
    1W        W35862   3.296   1.615   1.270 -0.0050  0.3239 -0.1217
    1W        W35863  21.974   7.180   8.790  0.0181 -0.0684  0.2616
    1W        W35864   3.878   0.848   7.784 -0.1194  0.0230  0.1269
    1W        W35865  28.965  24.831   2.161 -0.1364 -0.0006  0.1994
    1W        W35866   7.911   5.222   8.011  0.0264  0.0671  0.3119
    1W        W35867  20.679  26.760   7.561 -0.1433 -0.0963  0.0194
    1W        W35868   3.620  28.579   2.243  0.0826  0.0868  0.2593
    1W        W35869  21.193   0.777   2.639 -0.0531 -0.0266 -0.0681
    1W        W35870   3.260  25.099   8.137  0.0635 -0.0682  0.0326
    1W        W35871   4.558  15.000   0.862  0.0803 -0.1928  0.0224
    1W        W35872  25.675  11.918   6.357  0.1829  0.0088  0.1376
    1W        W35873   3.587  28.447   1.713 -0.1986  0.0587 -0.0824
    1W        W35874  20.467  14.926   7.300  0.1013  0.0490  0.0256
    1W        W35875   2.918   6.885   9.308  0.0271 -0.2113  0.2221
    1W        W35876  21.307  24.087   2.422  0.2555 -0.3350 -0.2132
    1W        W35877  26.669  26.550   7.858  0.1068 -0.2439  0.1232
    1W        W35878  28.122  11.207   8.783 -0.0852 -0.0360  0.1417
    1W        W35879   3.394   7.291   7.391 -0.2750  0.2231 -0.0672
    1W        W35880  27.784   9.586   0.339  0.1345  0.0437  0.1932
    1W        W35881  27.859   4.553   8.935  0.1395  0.1045 -0.0692
    1W        W35882   8.449  28.262   7.749  0.2395  0.0450  0.1756
    1W        W35883  19.536   4.105   2.118 -0.0897 -0.3407  0.2765
    1W        W35884  14.068  13.730   1.356 -0.1955 -0.3393  0.0622
    1W        W35885  18.039  29.147   2.200  0.0279  0.4100  0.2469
    1W        W35886  27.596  21.796   0.765  0.1453  0.0252  0.1145
    1W        W35887  22.059  26.813   8.970 -0.1284  0.4602 -0.0831
    1W        W35888  11.262  17.983   0.197 -0.1250  0.2508 -0.0450
    1W        W35889  11.350   0.828   7.460 -0.2295 -0.0171  0.3122
    1W        W35890   9.383  28.408   1.484 -0.0262  0.3237 -0.0117
    1W        W35891  22.266  18.241   2.081  0.0414  0.0320  0.2822
    1W        W35892   6.607  25.477   1.036  0.0417 -0.0078 -0.1557
    1W        W35893  15.831   8.876   7.400 -0.0997 -0.3804 -0.3433
    1W        W35894   7.195   6.775   8.157  0.1268 -0.1726 -0.1242
    1W        W35895  18.356  29.770   3.381  0.1221  0.0028  0.1352
    1W        W35896   7.155  15.816   7.574 -0.1165  0.1743 -0.2665
    1W        W35897  18.511  20.709   8.043  0.2340  0.1006 -0.1517
    1W        W35898  12.355  23.332   1.793 -0.2584  0.1757  0.2869
    1W        W35899  15.045  18.515   0.697 -0.3140  0.2664 -0.1006
    1W        W35900  12.117  21.211   6.612  0.2639  0.0906 -0.1171
    1W        W35901  29.084  24.713   0.804  0.1740 -0.1594  0.3302
    1W        W35902  25.586  21.629   2.499  0.2138  0.1141  0.1955
    1W        W35903  17.022  11.044   7.685 -0.0538 -0.0901 -0.2107
    1W        W35904  25.046  27.468   8.431  0.3235 -0.0407  0.0588
    1W        W35905   2.683  27.844   0.470  0.1981  0.1815 -0.0390
    1W        W35906   6.323  19.742   6.517  0.0136  0.0850  0.3097
    1W        W35907   6.068   7.137   1.836  0.2027 -0.2487 -0.2555
    1W        W35908  11.666  24.834   8.248  0.0644 -0.1463 -0.1874
    1W        W35909  15.386  11.233   2.179  0.1222  0.0571 -0.0913
    1W        W35910   6.682   0.977   2.167  0.1563  0.2013 -0.0453
    1W        W35911   3.907  10.250   9.368  0.2680  0.2868  0.0587
    1W        W35912  28.268  10.264   1.121 -0.1669 -0.0421  0.1143
    1W        W35913  22.364  19.327   8.956 -0.1277  0.0072 -0.0169
    1W        W35914  28.777  16.066   1.984  0.0077 -0.1122  0.0805
    1W        W35915  16.728  29.794   6.596 -0.1261 -0.1218 -0.0064
    1W        W35916  11.615  18.700   0.969  0.2429  0.1761 -0.0558
    1W        W35917  17.954  26.767   3.778 -0.1035  0.1607 -0.1069
    1W        W35918   8.376   6.954   0.274 -0.2858  0.1802 -0.0306
    1W        W35919  16.587  29.694   1.882 -0.1142  0.0499 -0.1476
    1W        W35920  11.579  23.847   2.186 -0.1922 -0.2966 -0.0889
    1W        W35921  28.093   7.882   2.027  0.4130  0.0493  0.2028
    1W        W35922  12.032  29.585   8.540 -0.1435 -0.0151  0.0531
    1W        W35923  18.507  16.387   0.136  0.2224 -0.1259 -0.3191
    1W        W35924  29.477  16.873   2.020 -0.0766  0.1951  0.1326
    1W        W35925  14.904  12.126   1.489 -0.3134  0.1095  0.0951
    1W        W35926  19.783   9.701   9.056 -0.3056  0.0078  0.0778
    1W        W35927  22.447  17.087   9.029  0.0951 -0.0278  0.1953
    1W        W35928   9.467  10.789   8.264  0.3039  0.0588 -0.2706
    1W        W35929  24.209   2.593   1.263  0.3726  0.0131 -0.1408
    1W        W35930  18.993  14.520   1.599  0.1232 -0.0583 -0.1066
    1W        W35931   5.160  13.166   5.777 -0.3125 -0.0978  0.0944
    1W        W35932  23.931  14.678   7.442  0.1196  0.0329  0.2588
    1W        W35933   7.150   2.053   2.417 -0.0503 -0.1531 -0.0222
    1W        W35934  21.646   8.572   2.574 -0.0078 -0.2224  0.0050
    1W        W35935  28.452  11.465   7.640 -0.0057 -0.0779 -0.5027
    1W        W35936   4.130  25.329   6.764  0.0069  0.0715 -0.2208
    1W        W35937   4.743  13.587   1.899  0.1097 -0.1718  0.2423
    1W        W35938  18.374  13.925   9.063  0.1096  0.1918  0.4183
    1W        W35939   3.379   5.733   8.705  0.1680  0.1528 -0.3267
    1W        W35940   2.283  12.318   6.863 -0.2957 -0.0213  0.1790
    1W        W35941  19.989   6.818   6.720  0.0045  0.2652  0.2378
    1W        W35942   3.097   1.148   8.844 -0.2030  0.1474  0.1281
    1W        W35943  14.782  13.136   0.373 -0.2982 -0.1835  0.1487
    1W        W35944   1.108  10.015   6.829 -0.4043 -0.2578  0.3105
    1W        W35945  29.049  21.101   2.153 -0.0851 -0.0754 -0.1182
    1W        W35946  10.250  12.259   0.523 -0.0015  0.1298  0.4257
    1W        W35947  12.869  28.077   8.264  0.1845  0.2591  0.1190
    1W        W35948  13.249   6.310   2.681 -0.1146  0.0394  0.2487
    1W        W35949   3.059  17.660   2.065 -0.0772 -0.2557  0.0509
    1W        W35950   5.466  23.578   9.361  0.4610 -0.2778  0.1033
    1W        W35951  12.367   0.563   2.356 -0.1718  0.1247 -0.0860
    1W        W35952  21.142  23.442   1.598  0.2309 -0.0703  0.0778
    1W        W35953  16.267   5.689   2.593  0.3132 -0.0463  0.0215
    1W        W35954   4.850  15.008   5.584 -0.2529  0.1484 -0.1429
    1W        W35955   2.331  17.660   0.110 -0.0883 -0.0448  0.1797
    1W        W35956  29.220  24.080   6.907 -0.0707  0.0154  0.1093
    1W        W35957  16.568  16.814   7.822  0.1788  0.1557 -0.2084
    1W        W35958   6.124  10.107   1.502  0.0600 -0.1049  0.2438
    1W        W35959  16.145  14.003   1.770 -0.0975  0.0303  0.0077
    1W        W35960  18.148  18.305   0.005 -0.2109 -0.0020  0.1139
    1W        W35961  16.611  18.484   1.504 -0.0432  0.0999  0.1590
    1W        W35962  13.987  23.482   9.132 -0.1577 -0.2347 -0.0656
    1W        W35963  21.941  12.061   9.342 -0.1770  0.0232  0.0422
    1W        W35964   6.429   8.502   9.011  0.0563 -0.0791  0.1619
    1W        W35965  23.048  27.212   9.041  0.1453 -0.0861 -0.2686
    1W        W35966  19.338  26.559   0.482  0.1637  0.1268 -0.5003
    1W        W35967  20.287  22.406   3.010  0.3374 -0.1526  0.1492
    1W        W35968  17.662   4.754   2.117  0.3566 -0.2206 -0.2428
    1W        W35969  26.645  16.024   1.172 -0.0576 -0.0526  0.1375
    1W        W35970   7.770  14.536   1.860 -0.0994  0.0581 -0.0155
    1W        W35971   9.197   2.254   3.477 -0.2556  0.2491  0.1257
    1W        W35972  10.263  25.120   6.803 -0.2239  0.5430 -0.0496
    1W        W35973   2.815   3.704   0.157  0.0762  0.0664 -0.0884
    1W        W35974   5.920   2.037   1.814 -0.0685  0.0075 -0.2687
    1W        W35975  13.639   3.634   0.546  0.1692 -0.0292 -0.1676
    1W        W35976  29.812  27.259   8.971 -0.1621 -0.0443  0.0982
    1W        W35977  21.908  13.668   8.022  0.0192  0.1078  0.1706
    1W        W35978  15.827   1.903   7.164 -0.0282 -0.3177 -0.0220
    1W        W35979  21.204  14.942   7.575 -0.0824  0.0958  0.2425
    1W        W35980   6.603   7.694   7.596 -0.3128 -0.0280 -0.0208
    1W        W35981  22.739  19.511   7.604  0.0916 -0.0281  0.1280
    1W        W35982   7.924  29.030   9.372 -0.0573 -0.2065 -0.2187
    1W        W35983  23.495  26.091   6.506 -0.3485  0.3075 -0.2376
    1W        W35984  24.857  10.337   6.045  0.0337  0.0279  0.1856
    1W        W35985   8.246  11.712   2.069  0.1700 -0.2072 -0.0016
    1W        W35986  14.237  15.683   8.059  0.0343 -0.1553 -0.0886
    1W        W35987  16.241  12.673   6.448 -0.1047  0.1101  0.1056
    1W        W35988  21.186   6.570   1.822 -0.0500 -0.1968 -0.0064
    1W        W35989   0.889  20.903   7.488  0.1155 -0.0841 -0.0593
    1W        W35990  19.652  24.472   6.788  0.2050 -0.1273  0.0547
    1W        W35991  25.636  23.705   9.402  0.1206  0.1157 -0.4220
    1W        W35992   6.102  19.489   1.429 -0.0259  0.3644 -0.1547
    1W        W35993  29.513  16.872   7.227 -0.0441 -0.0090  0.1436
    1W        W35994  29.411  21.028   7.124  0.1851 -0.1034 -0.2242
    1W        W35995  12.927  13.653   1.357 -0.0619  0.1200  0.0638
    1W        W35996  25.039  24.465   7.722  0.4083  0.1482  0.0996
    1W        W35997   7.761   6.041   8.433 -0.0104 -0.2701 -0.1850
    1W        W35998  25.068  14.844   8.376 -0.3786  0.0313  0.0816
    1W        W35999  11.663  25.833   1.896  0.1175  0.0887  0.1624
    1W        W36000  12.404   3.021   8.420 -0.1289 -0.0301  0.1838
    1W        W36001  21.850  28.847   8.167  0.4006  0.0997  0.0279
    1W        W36002  19.090  13.003   8.687 -0.2715  0.2610  0.0024
    1W        W36003   8.674   5.937   8.240  0.1577  0.0422 -0.0347
    1W        W36004  18.119  27.762   7.210  0.2939 -0.0501  0.2991
    1W        W36005   7.217   1.342   2.909  0.0264  0.3091  0.0685
    1W        W36006  22.403  26.194   0.584 -0.2428  0.2834 -0.1582
    1W        W36007  15.761  21.393   8.795 -0.0206  0.0585 -0.1159
    1W        W36008  15.058  13.102   9.429  0.0201  0.0563  0.0592
    1W        W36009  12.578  10.763   1.211 -0.5303  0.1434  0.0098
    1W        W36010   9.578  25.949   2.697 -0.0608  0.1062 -0.0628
    1W        W36011  24.239  19.267   0.753  0.1549  0.0831 -0.4237
    1W        W36012  12.791   1.622   8.504  0.1280 -0.2634 -0.1899
    1W        W36013  18.377  15.541   0.978 -0.0008  0.1701  0.0005
    1W        W36014  18.917  19.821   1.465  0.1257  0.0396  0.2307
    1W        W36015  19.653  16.980   9.167  0.0173 -0.1203 -0.2690
    1W        W36016  17.373   7.965   8.325 -0.1018 -0.0215  0.0462
    1W        W36017  14.048  22.568   0.225 -0.1471  0.2772  0.1313
    1W        W36018  26.928  10.606   1.596 -0.2099 -0.3918 -0.0415
    1W        W36019  21.997  13.948   8.460  0.1195  0.1867 -0.0673
    1W        W36020  29.044  20.637   8.433  0.0755  0.3605  0.0425
    1W        W36021  28.456   2.611   0.987  0.0844 -0.1700  0.1458
    1W        W36022  16.217  12.787   8.883  0.0200  0.0620 -0.0484
    1W        W36023   5.062  19.069   9.433  0.4466 -0.0671  0.1478
    1W        W36024   7.496  21.422   7.938  0.1588 -0.0895 -0.2663
    1W        W36025   5.468  19.469   0.365 -0.2334 -0.2408 -0.0313
    1W        W36026   7.470  17.112   8.411  0.0437  0.2293  0.2171
    1W        W36027  28.124  21.175   6.559  0.2890 -0.0297 -0.2604
    1W        W36028   1.799  12.312   7.102 -0.2531 -0.0103  0.1199
    1W        W36029  13.897  16.937   0.248 -0.1436  0.0921  0.0346
    1W        W36030   0.965  17.698   6.328  0.0404  0.0845  0.1201
    1W        W36031  11.194  18.672   8.764  0.0973  0.0839  0.0569
    1W        W36032   9.893   6.986   3.166 -0.2083 -0.2618  0.0316
    1W        W36033   4.431  16.884   9.027  0.0674  0.1506  0.1455
    1W        W36034  22.757  28.665   2.041 -0.0853 -0.1581  0.1475
    1W        W36035   7.511  20.546   9.072  0.0798 -0.4111  0.0289
    1W        W36036   4.695   7.179   1.121  0.2507  0.0374  0.0950
    1W        W36037   5.359  19.942   6.821  0.0909  0.2049  0.1550
    1W        W36038   9.481   8.364   1.947 -0.1147 -0.0489 -0.0826
    1W        W36039   8.527  18.615   6.869  0.0263 -0.0368  0.1127
    1W        W36040  14.599   0.438   0.375  0.0506  0.1012 -0.0621
    1W        W36041   1.951  12.419   8.869 -0.1015 -0.0073  0.1812
    1W        W36042  25.722  13.553   6.944 -0.0660 -0.0284  0.0160
    1W        W36043   2.373  11.844   0.753  0.0077 -0.1664 -0.3119
    1W        W36044  10.410  27.587   0.291  0.0708  0.0479 -0.1016
    1W        W36045  22.982  22.084   2.816  0.0188  0.1223 -0.1588
    1W        W36046   2.050  12.486   1.746 -0.1641 -0.0720 -0.1335
    1W        W36047  12.283   1.352   8.597  0.3180 -0.1621 -0.3061
    1W        W36048  11.802   0.343   2.503 -0.1235 -0.1011  0.2555
    1W        W36049  15.797   0.966   1.294  0.1641 -0.4687  0.0342
    1W        W36050  15.280  25.606   2.717  0.2101  0.1346  0.3277
    1W        W36051   0.205  18.249   7.326  0.1404 -0.2231  0.2879
    1W        W36052  10.657  24.353   6.631  0.2001  0.4071  0.0108
    1W        W36053  28.632  27.154   0.583 -0.0653 -0.2449 -0.1642
    1W        W36054   2.817   7.023   0.919  0.2130 -0.0500  0.1795
    1W        W36055  18.838  23.389   0.898 -0.0138 -0.1671  0.0567
    1W        W36056  28.830  11.946   0.404  0.0768  0.2783 -0.0892
    1W        W36057   2.718   5.903   1.422  0.4343 -0.1347 -0.0219
    1W        W36058  21.063  27.281   8.244  0.1250 -0.2847  0.1772
    1W        W36059  16.815  24.464   8.181 -0.0336 -0.2167 -0.0271
    1W        W36060  10.512  11.719   8.293 -0.1322 -0.0694 -0.1789
    1W        W36061  19.533  14.314   9.405 -0.1806  0.0388 -0.0174
    1W        W36062  15.944   8.893   6.925 -0.1685  0.0647  0.1649
    1W        W36063  22.170  15.052   7.403 -0.0055 -0.0032 -0.2411
    1W        W36064  15.018  28.010   8.992  0.3593 -0.0938  0.3026
    1W        W36065  11.460  13.174   0.770 -0.0276  0.1045 -0.4301
    1W        W36066  13.241  17.635   0.618  0.0246 -0.3341 -0.1029
    1W        W36067  25.961  13.307   1.764 -0.0763 -0.1519  0.1809
    1W        W36068   8.835  10.847   7.162  0.1214  0.0196  0.0821
    1W        W36069   8.181   7.783   1.412 -0.0826 -0.1861  0.1234
    1W        W36070  10.902  22.557   1.130 -0.0628  0.2507 -0.0023
    1W        W36071  23.825   4.674   3.197 -0.0771  0.0978  0.1960
    1W        W36072  12.593  19.032   7.466 -0.2484  0.0077  0.0167
    1W        W36073  28.599   9.155   1.685 -0.0896  0.0491  0.0028
    1W        W36074   0.256   8.775   7.254 -0.0967  0.6745  0.0847
    1W        W36075  29.669   0.177   2.411  0.2789  0.7600  0.0456
    1W        W36076  15.072  28.909   1.705  0.0160 -0.0590  0.0842
    1W        W36077   1.420  20.385   8.486 -0.0236 -0.0615  0.1252
    1W        W36078   4.675  24.376   5.525  0.0784 -0.1380  0.0319
    1W        W36079  15.618  22.056   8.686 -0.1614  0.0916 -0.1825
    1W        W36080   4.431  15.481   9.374 -0.0859  0.1087  0.1180
    1W        W36081  17.497  21.115   2.560  0.1904 -0.1019  0.0243
    1W        W36082   1.515  14.442   9.436 -0.1220  0.1433  0.2308
    1W        W36083   5.861  10.613   6.057 -0.1051 -0.0173 -0.0889
    1W        W36084  12.824  20.785   0.303  0.2663 -0.3371 -0.0834
    1W        W36085  15.041   5.087   2.679  0.0418  0.0869  0.0675
    1W        W36086  20.065  23.464   2.214 -0.2218  0.0018 -0.1859
    1W        W36087  12.116   9.263   1.926 -0.1095 -0.4580 -0.0493
    1W        W36088   5.180  29.105   9.225  0.1864 -0.1312  0.0647
    1W        W36089  22.733   6.435   0.569  0.0354 -0.4275  0.0349
    1W        W36090   1.456  28.209   8.636 -0.0643  0.0300  0.2867
    1W        W36091  25.341   2.345   3.464 -0.2055  0.2757  0.2677
    1W        W36092  18.642  25.149   9.000  0.1267 -0.1237  0.1136
    1W        W36093  14.264   4.505   9.032  0.1764 -0.0875 -0.1040
    1W        W36094   9.563  24.856   7.864 -0.0014  0.2214  0.0550
    1W        W36095  21.856   4.819   9.199  0.3739 -0.1869  0.0418
    1W        W36096  22.557  23.172   3.258 -0.1052  0.2280  0.0974
    1W        W36097   5.029  23.439   7.911 -0.0083 -0.2455 -0.2882
    1W        W36098   6.392  26.227   0.889  0.3587 -0.2093 -0.1577
    1W        W36099  17.483  18.966   9.316  0.1149 -0.1847  0.0943
    1W        W36100  12.928   6.024   1.866  0.0312 -0.0719  0.0251
    1W        W36101   3.266  12.807   7.153 -0.4287  0.0827 -0.2519
    1W        W36102   1.459  17.181   6.824 -0.2586 -0.1163 -0.0001
    1W        W36103  17.844  24.360   0.191 -0.0886 -0.0577 -0.2201
    1W        W36104  22.557   6.013   8.949  0.2452 -0.0671  0.3768
    1W        W36105  15.907  17.760   1.257  0.0458  0.1562 -0.1244
    1W        W36106  20.801   8.342   6.705  0.0076  0.0421  0.0732
    1W        W36107   9.283  21.154   7.676  0.0964  0.1090 -0.0445
    1W        W36108  17.919   7.178   8.006 -0.0121  0.1312 -0.0392
    1W        W36109  24.322   2.672   7.005 -0.0304 -0.0159  0.1851
    1W        W36110   4.433  16.870   7.342  0.0395  0.2411  0.0211
    1W        W36111  14.517  17.169   0.910  0.1790 -0.2106  0.1770
    1W        W36112  24.525  23.463   8.646  0.2226 -0.1279 -0.0050
    1W        W36113  16.761  18.174   9.041 -0.0121 -0.1256  0.1031
    1W        W36114   9.581  29.658   9.201 -0.0261 -0.1450  0.0932
    1W        W36115  10.771   6.331   1.414  0.1774 -0.1044  0.0129
    1W        W36116  10.081   1.060   7.557 -0.2313  0.0542 -0.2503
    1W        W36117  25.836  29.337   0.536  0.0738  0.2141 -0.0139
    1W        W36118   2.593  12.627   9.280 -0.1280  0.3742 -0.3918
    1W        W36119   1.800   4.869   9.184 -0.0985  0.0427  0.1943
    1W        W36120  26.524   1.549   7.386  0.1996 -0.0086 -0.3788
    1W        W36121  23.932  25.717   7.885  0.3087  0.1283 -0.3934
    1W        W36122   0.995   1.334   7.822 -0.1422  0.0668  0.1587
    1W        W36123   6.245  17.488   6.730  0.0307  0.0069 -0.2327
    1W        W36124  13.763   8.170   1.311 -0.0028  0.2321  0.1076
    1W        W36125  23.511  16.360   1.616 -0.1375 -0.2374 -0.3037
    1W        W36126   8.993  19.172   8.907  0.4901  0.1252 -0.2852
    1W        W36127  16.840  10.690   0.570 -0.2327  0.1815  0.1280
    1W        W36128  20.667   0.645   0.670  0.4524 -0.2819  0.3406
    1W        W36129   3.431  24.896   6.485  0.1497  0.0682  0.0179
    1W        W36130   0.749  18.125   2.641  0.0450 -0.1362  0.1156
    1W        W36131  25.402  24.243   9.433 -0.1545  0.2252 -0.1967
    1W        W36132  24.575  27.980   7.451  0.0716 -0.0594  0.0748
    1W        W36133  27.331   8.631   8.306 -0.2289 -0.0268 -0.0986
    1W        W36134  13.235  14.635   2.042  0.0602  0.0613  0.3083
    1W        W36135   8.496  13.476   0.965 -0.0481 -0.0837 -0.0044
    1W        W36136  11.262   9.315   1.512 -0.2364  0.2871 -0.0302
    1W        W36137  14.097   7.233   7.940  0.1937  0.0406  0.0520
    1W        W36138  13.713  23.077   8.933 -0.0098 -0.2334 -0.0435
    1W        W36139  25.806  17.900   8.454 -0.1041 -0.0445 -0.0561
    1W        W36140   1.834  12.878   1.410 -0.1724  0.0423 -0.0048
    1W        W36141  11.684   5.047   2.151  0.0140 -0.1755 -0.2226
    1W        W36142  18.407  17.266   7.078  0.0424 -0.0394 -0.1281
    1W        W36143   4.721  10.875   2.177 -0.3169 -0.2892 -0.0718
    1W        W36144  16.652  24.217   2.224  0.1947  0.0333 -0.0548
    1W        W36145  14.505  23.376   9.352 -0.2212  0.0915 -0.0059
    1W        W36146  27.865   9.978   8.893 -0.0080 -0.0652 -0.1345
    1W        W36147   7.327  17.973   8.625  0.3510  0.0400 -0.1279
    1W        W36148   6.638  16.046   2.147  0.0717  0.1450  0.0079
    1W        W36149  23.845  12.847   5.994  0.2084  0.0176 -0.3201
    1W        W36150   3.848   0.590   0.346 -0.0688 -0.1408 -0.1704
    1W        W36151   4.612  20.465   6.816 -0.2986  0.0310 -0.0437
    1W        W36152  10.311  19.387   1.808 -0.1322  0.2328  0.0240
    1W        W36153  29.320   5.655   1.965  0.3242  0.2543 -0.0922
    1W        W36154   9.211  19.864   1.146  0.1447 -0.5171  0.1377
    1W        W36155  21.337   0.053   0.784  0.1917 -0.1847  0.0153
    1W        W36156  25.900  26.806   0.561 -0.0135  0.1456 -0.1025
    1W        W36157  16.677   0.298   0.968 -0.0127 -0.0103  0.2380
    1W        W36158  22.729  26.268   8.638  0.4130  0.1293  0.1989
    1W        W36159  20.577   1.827   7.501  0.1005  0.1395 -0.2860
    1W        W36160   5.631   7.045   3.200 -0.1382  0.0052  0.1394
    1W        W36161  16.592  18.573   7.451 -0.0170  0.0184  0.1298
    1W        W36162  29.574   1.418   7.338 -0.0624  0.2243  0.0579
    1W        W36163   4.210   5.491   7.812  0.1493  0.1941 -0.0926
    1W        W36164  11.600   7.370   0.403 -0.2168  0.0237 -0.1285
    1W        W36165   5.903  12.425   0.612 -0.1530  0.3174 -0.1094
    1W        W36166  19.702  27.800   8.105  0.0153 -0.1351  0.0275
    1W        W36167  16.047  20.349   0.693  0.1308 -0.4031 -0.0784
    1W        W36168  11.585   9.575   7.300  0.0946  0.1670 -0.1385
    1W        W36169   5.391  21.530   1.167  0.1515 -0.2303 -0.1234
    1W        W36170   9.627   4.003   0.057 -0.1017  0.0873  0.0086
    1W        W36171  24.448  29.660   3.205 -0.0193  0.0616 -0.1182
    1W        W36172  19.841  23.111   1.015 -0.0763 -0.1167  0.1124
    1W        W36173   6.042  20.102   6.212 -0.1603  0.1267  0.1003
    1W        W36174   2.979  26.574   2.192 -0.2765 -0.0713 -0.4527
    1W        W36175   4.377  23.711   1.198 -0.1449  0.0453 -0.0596
    1W        W36176   6.173  14.378   0.521 -0.0734  0.1456  0.0161
    1W        W36177  27.637  12.000   1.040 -0.0484  0.0315 -0.1223
    1W        W36178  28.999  26.531   2.898 -0.1039  0.1772 -0.0492
    1W        W36179   1.466  25.677   2.625 -0.1403 -0.3500 -0.2625
    1W        W36180   9.756   9.975   8.334 -0.1032  0.1690 -0.0368
    1W        W36181  18.520   6.591   6.438  0.2190 -0.0513 -0.2406
    1W        W36182   9.526   6.357   1.044  0.2628  0.0840 -0.0496
    1W        W36183  12.661   5.201   0.423 -0.1290 -0.0597 -0.1563
    1W        W36184  27.739  13.391   6.472  0.4586  0.1209 -0.2383
    1W        W36185  29.228  14.318   6.333 -0.0740  0.2371  0.0607
    1W        W36186  17.809  19.583   1.424 -0.1879 -0.1576 -0.2821
    1W        W36187  24.021   1.963   8.247 -0.1020 -0.0866 -0.0992
    1W        W36188  23.647  27.323   8.219 -0.0461  0.1074 -0.2242
    1W        W36189  25.537   1.540   1.872  0.0285  0.1216  0.1014
    1W        W36190  12.585  22.957   8.510 -0.0969 -0.1915 -0.0233
    1W        W36191  24.004   7.240   8.093  0.0539 -0.2072  0.0332
    1W        W36192   7.561  20.087   7.395  0.3870  0.0300  0.0255
    1W        W36193  10.904  20.542   8.051  0.3109 -0.1534 -0.1940
    1W        W36194   4.865  16.285   6.545  0.0256  0.0120  0.1829
    1W        W36195  16.838  25.536   3.636  0.2150  0.2104  0.0166
    1W        W36196  18.801  23.903   1.734  0.3776 -0.2252  0.0145
    1W        W36197  10.017  17.955   8.118 -0.0616  0.3402 -0.0598
    1W        W36198  19.269  16.764   8.919  0.0112  0.1798 -0.0569
    1W        W36199  12.308   5.284   1.304 -0.2172  0.1072  0.1987
    1W        W36200   0.377  21.494   0.003 -0.0861 -0.0650  0.0080
    1W        W36201  24.913  18.860   8.864  0.1867  0.0812 -0.0157
    1W        W36202  24.432  19.710   0.769  0.2824  0.1072 -0.2866
    1W        W36203   3.612  11.173   8.356 -0.0886 -0.2125  0.1103
    1W        W36204  15.502   7.585   7.402  0.0962  0.0824  0.3132
    1W        W36205  16.209   0.468   7.440  0.0783  0.3428  0.1477
    1W        W36206  21.816  14.463   6.859  0.0599 -0.0217 -0.1716
    1W        W36207  29.560  24.655   5.873  0.2067 -0.0367 -0.3625
    1W        W36208   6.200   5.401   0.913  0.1254  0.1242 -0.1509
    1W        W36209   9.644   0.677   8.868  0.1902  0.0189 -0.0396
    1W        W36210  13.576  27.868   7.117  0.0834  0.0604  0.0189
    1W        W36211  29.516   0.365   0.958 -0.1978 -0.3304 -0.1904
    1W        W36212   7.820   5.632   2.820 -0.1108 -0.0093 -0.3349
    1W        W36213  17.437   1.088   9.309  0.0993 -0.0330  0.2181
    1W        W36214  22.276   0.785   7.941 -0.1074  0.0420 -0.0113
    1W        W36215   3.779  27.728   7.945 -0.2029  0.1009 -0.0644
    1W        W36216   9.078  12.528   8.095  0.5532 -0.4346 -0.1757
    1W        W36217  21.587  28.284   2.737  0.1919 -0.1918  0.1478
    1W        W36218  20.397  13.137   0.953 -0.0219 -0.0685 -0.1047
    1W        W36219  23.619   3.272   0.762  0.0505 -0.2624  0.0408
    1W        W36220  27.534  24.091   2.302  0.0761 -0.1858 -0.0101
    1W        W36221   7.371   7.058   1.502  0.0816 -0.1565  0.2259
    1W        W36222  20.373  21.666   7.408 -0.0803  0.2894 -0.1555
    1W        W36223   2.048   8.832   8.631  0.1585 -0.1246 -0.1624
    1W        W36224  22.638  24.513   1.933  0.0659 -0.3189 -0.1173
    1W        W36225   7.952  18.794   7.889  0.1515  0.1505 -0.1260
    1W        W36226   0.237  11.292   1.577  0.0876  0.1193 -0.0538
    1W        W36227  28.055  10.366   7.297  0.0327  0.0889  0.1691
    1W        W36228  19.249   6.162   9.073  0.1245  0.2127  0.1293
    1W        W36229  16.425  12.749   0.178  0.2897  0.0410  0.0283
    1W        W36230  29.495  15.964   6.738 -0.2744 -0.1439 -0.2263
    1W        W36231  25.442  10.741   9.333  0.3841 -0.0310  0.0645
    1W        W36232   4.438  25.095   0.505  0.0027 -0.0640 -0.0784
    1W        W36233   9.923  25.274   7.085  0.2849 -0.3946  0.0397
    1W        W36234  26.596  25.729   2.141  0.1445 -0.0093 -0.1686
    1W        W36235  19.990  27.524   1.659  0.1633  0.0557 -0.0754
    1W        W36236  17.638   2.218   1.068 -0.1450  0.1882  0.0797
    1W        W36237   3.144   6.313   6.671  0.0676  0.1791 -0.2600
    1W        W36238  18.540  26.846   9.454 -0.3779 -0.0637  0.1011
    1W        W36239   3.163   3.823   7.319  0.2524  0.0802  0.0287
    1W        W36240  23.233  17.732   7.075 -0.2096 -0.2903  0.0705
    1W        W36241   7.462   8.238   7.846 -0.1560  0.0915  0.1453
    1W        W36242  11.573   4.292   3.220  0.0832 -0.0996 -0.0941
    1W        W36243  18.556  10.355   7.926 -0.2483 -0.2237  0.0478
    1W        W36244   7.092  29.502   3.382  0.1273  0.3737  0.2346
    1W        W36245  22.688  21.902   1.776 -0.0008 -0.0349 -0.4028
    1W        W36246  23.484   3.441   0.216 -0.0140  0.1776 -0.2528
    1W        W36247  26.058  29.642   2.021 -0.4650 -0.2609 -0.0638
    1W        W36248  25.086  13.373   1.017  0.1906  0.0714  0.0886
    1W        W36249  27.617   1.389   3.093 -0.1706 -0.3719 -0.1881
    1W        W36250  23.279  26.981   0.013 -0.2541 -0.1699 -0.3261
    1W        W36251  11.546  25.349   8.293  0.1004 -0.1159 -0.0528
    1W        W36252  25.333   0.213   3.397 -0.1214  0.2261  0.0188
    1W        W36253   2.558   0.882   8.063 -0.0156 -0.1642  0.3616
    1W        W36254   6.143  17.688   1.810  0.0912 -0.5276 -0.0655
    1W        W36255   8.146  24.750   9.329  0.1011  0.2319  0.3406
    1W        W36256  15.966  10.667   9.231 -0.2474  0.0390  0.1255
    1W        W36257  22.690  18.839   9.391 -0.2850  0.1928  0.1909
    1W        W36258   7.317  14.047   0.593  0.1928  0.0807 -0.3213
    1W        W36259  25.596  18.421   0.967  0.0118 -0.2946 -0.0498
    1W        W36260  24.470   3.707   7.214  0.2606 -0.0105 -0.0106
    1W        W36261  19.683   6.725   0.682  0.2276 -0.0074  0.0086
    1W        W36262  18.398  27.871   3.266  0.1482  0.3239 -0.3787
    1W        W36263  17.625  18.545   0.172  0.1911 -0.1649  0.1085
    1W        W36264  14.965  26.890   2.009  0.2407 -0.1011 -0.0466
    1W        W36265  15.790   3.016   1.646  0.3895 -0.1377  0.0117
    1W        W36266  20.483   8.758   8.482 -0.0007  0.0554  0.0493
    1W        W36267   3.160   3.322   0.968 -0.3651 -0.2370  0.0574
    1W        W36268  26.986   4.706   2.304  0.1950  0.1205  0.3311
    1W        W36269  16.443   4.056   1.327 -0.2993  0.0732  0.0035
    1W        W36270  20.087  15.940   0.608 -0.0393 -0.1337 -0.3402
    1W        W36271   9.864   6.622   7.695  0.0706 -0.4146 -0.0210
    1W        W36272  24.256  10.251   8.832  0.0136  0.0712  0.0085
    1W        W36273  23.721   1.332   9.268  0.0779  0.1610 -0.0090
    1W        W36274  14.611   8.678   7.394  0.1633 -0.1098  0.4142
    1W        W36275  16.344  21.583   1.066  0.1806  0.0415  0.0881
    1W        W36276  19.868   3.774   8.325  0.0103  0.1275  0.1136
    1W        W36277  22.951   4.680   2.598  0.0964 -0.2942  0.1172
    1W        W36278  11.007  29.807   2.404  0.1132  0.1425 -0.2623
    1W        W36279   2.316  27.694   6.789  0.0558 -0.0966  0.1523
    1W        W36280  11.126  17.714   0.676 -0.1742 -0.0619  0.2357
    1W        W36281   7.949   1.385   2.242  0.3075 -0.3063  0.0633
    1W        W36282  26.104   3.428   6.791 -0.0290 -0.2478  0.0686
    1W        W36283  25.381   9.809   9.274  0.1100 -0.0328  0.1547
    1W        W36284  12.481   8.340   8.343  0.2589 -0.3680  0.0382
    1W        W36285  20.570   5.124   7.089  0.0626 -0.1061  0.0097
    1W        W36286  29.101  26.284   5.891 -0.1080 -0.0020  0.2120
    1W        W36287  18.445   3.070   0.444 -0.1876 -0.2311  0.2476
    1W        W36288  21.889  16.591   0.758  0.2159  0.0181  0.1473
    1W        W36289  24.631  24.731   7.919 -0.1922  0.0337 -0.2239
    1W        W36290   0.595   9.380   8.337  0.2608  0.0784  0.1179
    1W        W36291  12.488   5.776   0.050  0.0079 -0.0408 -0.3165
    1W        W36292   4.698  25.862   8.363 -0.2684 -0.0700  0.1587
    1W        W36293  11.339   7.666   8.008  0.3043  0.4174  0.0574
    1W        W36294  21.729   7.505   1.168 -0.0230 -0.0077 -0.0466
    1W        W36295  24.395   9.271   1.600  0.1158 -0.0904  0.0630
    1W        W36296  15.810  27.800   1.120  0.0072  0.0846 -0.2706
    1W        W36297  25.709   5.344   2.277 -0.0397  0.3161  0.1728
    1W        W36298   8.129   8.841   8.358 -0.0661 -0.1171 -0.1505
    1W        W36299  12.471  11.871   2.189 -0.1267 -0.1828 -0.1539
    1W        W36300   6.437   7.482   3.467 -0.1036  0.0027  0.2519
    1W        W36301  24.105   8.445   1.346 -0.1808  0.2389  0.3266
    1W        W36302  17.009  18.062   8.618  0.4789  0.1979  0.0801
    1W        W36303  11.708  15.864   7.676 -0.1560  0.0028  0.2567
    1W        W36304  21.851  22.309   8.766 -0.0616 -0.1073  0.2109
    1W        W36305   2.895  26.202   0.098  0.0030 -0.1956  0.3416
    1W        W36306  27.518  24.475   8.572 -0.1690  0.2333  0.0918
    1W        W36307  17.878  16.133   8.434 -0.0512  0.1137 -0.2566
    1W        W36308   6.246  22.168   6.569  0.0845 -0.2775  0.0099
    1W        W36309  28.693  18.338   6.740 -0.1604  0.1346  0.1669
    1W        W36310  21.864  18.510   1.805  0.1155  0.2513 -0.0496
    1W        W36311  23.120  17.461   8.523 -0.0365  0.2928  0.0744
    1W        W36312   3.560   8.528   8.111  0.2621 -0.1135 -0.3101
    1W        W36313  23.553   6.704   7.590  0.1758  0.1195  0.2890
    1W        W36314  16.538  22.068   1.046 -0.2524  0.1344 -0.1368
    1W        W36315   8.217   8.086   8.908  0.0975 -0.2796 -0.1507
    1W        W36316  29.298   2.095   7.179  0.0484 -0.0873 -0.0200
    1W        W36317  24.376   0.165   9.014  0.1212 -0.1017 -0.2070
    1W        W36318   6.466  22.024   1.275  0.4863  0.1708 -0.2473
    1W        W36319  18.769   4.868   1.812  0.1544 -0.4572  0.3322
    1W        W36320  27.244   8.501   9.231  0.2659 -0.1810 -0.2049
    1W        W36321  28.296  15.893   0.642 -0.0580  0.0299 -0.1139
    1W        W36322  14.249  25.587   9.012  0.0943 -0.0530 -0.0693
    1W        W36323  19.675   5.492   8.633 -0.0960  0.1235  0.1558
    1W        W36324  13.988   5.047   0.301  0.0921 -0.2289  0.0905
    1W        W36325   4.448   5.534   9.316  0.0217  0.0114 -0.3874
    1W        W36326  13.448   5.785   6.951  0.0873  0.0822 -0.1533
    1W        W36327   5.985  29.014   8.606  0.0913  0.1501  0.2195
    1W        W36328   6.086  13.885   0.224 -0.0921 -0.0807  0.1078
    1W        W36329  19.269  28.143   0.548  0.3015  0.3994  0.0301
    1W        W36330  20.514  25.004   1.460  0.0539 -0.0372  0.0249
    1W        W36331  13.746   9.834   8.820 -0.3224  0.0831  0.1037
    1W        W36332  27.366  17.998   6.788  0.0164 -0.1189  0.1347
    1W        W36333  18.872   7.929   6.527 -0.3373  0.2447 -0.1033
    1W        W36334  26.431  10.308   8.027  0.1065 -0.4494 -0.0516
    1W        W36335  29.610   0.260   8.002 -0.2041 -0.0502  0.1551
    1W        W36336  19.356  10.886   6.899 -0.2029 -0.2620  0.4141
    1W        W36337  15.613   7.447   6.891 -0.1664 -0.2536  0.2423
    1W        W36338  29.816   5.582   9.417  0.1119 -0.0832  0.0140
    1W        W36339  24.029   1.488   8.326  0.0624  0.0507 -0.4029
    1W        W36340   0.463   6.369   2.912 -0.4161  0.1744  0.2036
    1W        W36341  13.743  10.269   6.800 -0.3161 -0.0453 -0.2180
    1W        W36342  29.088  29.373   0.836 -0.0950  0.2822 -0.2061
    1W        W36343  23.497  15.599   9.206  0.3171 -0.4087  0.1231
    1W        W36344  27.390   1.660   1.848  0.2896 -0.3756  0.0857
    1W        W36345   0.367  29.410   8.057 -0.3697  0.2234  0.3690
    1W        W36346  28.089  24.621   0.297  0.0038 -0.2506 -0.1830
    1W        W36347   1.719   0.539   0.367 -0.0703 -0.1045 -0.2660
    1W        W36348  15.029  21.782   7.210  0.0321  0.3713 -0.0265
    1W        W36349   0.271   6.734   0.563  0.0113  0.0773  0.0509
    1W        W36350   9.861   7.055   2.519 -0.2157  0.2153 -0.0723
    1W        W36351   6.700  16.666   0.075 -0.0926  0.0820 -0.2255
    1W        W36352  21.244  12.690   9.412 -0.0648  0.0754  0.0039
    1W        W36353  19.969  19.137   8.052  0.2366 -0.1644 -0.1290
    1W        W36354  14.815   3.117   1.320 -0.0980  0.0007  0.0644
    1W        W36355  15.632  12.625   7.145  0.3696 -0.1470 -0.0646
    1W        W36356  14.572   9.175   7.282  0.2605  0.0438  0.1434
    1W        W36357  22.234  22.141   9.089  0.1334  0.1560 -0.0788
    1W        W36358  17.366  23.897   2.398  0.2267  0.0851  0.3019
    1W        W36359  23.531   1.410   2.565 -0.2225  0.0315 -0.1447
    1W        W36360  21.759   8.858   6.772 -0.3311  0.0698  0.0224
    1W        W36361  26.002  11.405   8.700  0.2885  0.0649  0.1064
    1W        W36362   6.381   4.238   7.117  0.0752 -0.1392 -0.1666
    1W        W36363  23.258  21.317   7.140  0.2447  0.4326  0.2405
    1W        W36364   0.936   7.700   9.228 -0.0588 -0.0210 -0.1017
    1W        W36365  16.456   0.250   8.766  0.0374  0.0593  0.0329
    1W        W36366  22.827   3.985   2.294  0.0469 -0.0270  0.2617
    1W        W36367  16.529  12.262   7.139  0.0650  0.2641  0.1008
    1W        W36368   7.019  20.517   1.013  0.0970  0.1549  0.3369
    1W        W36369  15.530   8.025   2.601  0.3066  0.0630 -0.1376
    1W        W36370  18.617  17.623   1.771 -0.0589  0.1757 -0.0299
    1W        W36371  25.467  17.367   2.577  0.0903  0.1146  0.0015
    1W        W36372   3.211  20.026   7.517  0.2701 -0.0939  0.0444
    1W        W36373  24.823  16.342   5.932  0.1887 -0.1692  0.2911
    1W        W36374   9.981  26.068   1.293  0.2429 -0.0913  0.0589
    1W        W36375  10.908  15.677   9.373  0.5100 -0.0105  0.0694
    1W        W36376   4.714  16.585   0.368 -0.3709 -0.2218 -0.2574
    1W        W36377  23.594   8.389   9.166  0.2440  0.0675 -0.4498
    1W        W36378  27.972  29.286   7.249 -0.1604 -0.0048 -0.3163
    1W        W36379   1.328  15.770   1.120 -0.2780 -0.1881  0.1218
    1W        W36380   9.286  27.847   0.727 -0.3626  0.0745  0.1101
    1W        W36381   2.356  26.490   7.808 -0.1151  0.1510 -0.0006
    1W        W36382  28.821  14.021   8.685 -0.2045 -0.0940  0.1692
    1W        W36383  13.007  24.224   6.820 -0.2699 -0.1303  0.0975
    1W        W36384  24.566  22.509   8.523 -0.0900 -0.3524 -0.1410
    1W        W36385  13.160  20.556   9.247  0.1591 -0.4579 -0.1708
    1W        W36386   3.488  20.195   7.891  0.1683  0.0360  0.1879
    1W        W36387  19.497   2.728   1.072 -0.0975  0.0972  0.0302
    1W        W36388   6.410  25.746   8.982 -0.0084 -0.2661 -0.2267
    1W        W36389  15.418  10.696   9.113 -0.1989 -0.0594  0.1775
    1W        W36390  28.679  11.559   0.093 -0.0594 -0.1013  0.1311
    1W        W36391   8.097   0.471   2.790 -0.0385  0.1607 -0.0228
    1W        W36392  11.790   9.530   2.246 -0.0337 -0.0271 -0.3075
    1W        W36393  10.823  11.186   3.174 -0.1801  0.0848 -0.0255
    1W        W36394   6.352  13.554   8.886 -0.3357 -0.2942  0.3447
    1W        W36395  21.627   2.538   1.980  0.3009 -0.2675  0.5144
    1W        W36396  19.148  27.417   7.897  0.2557 -0.3790 -0.0650
    1W        W36397   8.779   6.918   9.365 -0.1000 -0.1563  0.4760
    1W        W36398   4.934   6.262   8.709  0.2876  0.0752  0.0023
    1W        W36399   3.584  23.676   0.501 -0.0282 -0.1561 -0.0049
    1W        W36400  10.277  22.904   1.147 -0.1387  0.0769  0.0110
    1W        W36401  28.701  20.976   1.598 -0.0435 -0.4229 -0.0944
    1W        W36402   8.076  13.371   9.324  0.1857 -0.1306  0.0838
    1W        W36403  23.221   9.552   0.312 -0.0519 -0.1163  0.2356
    1W        W36404  13.197  18.371   8.995  0.1739 -0.1245 -0.0195
    1W        W36405   0.673  12.955   1.771  0.2015  0.1168 -0.0623
    1W        W36406  15.116  29.801   2.038  0.1942  0.0585  0.2204
    1W        W36407  15.026  17.386   7.172 -0.1324 -0.1761 -0.1648
    1W        W36408  26.860  29.591   8.955  0.0125 -0.1608  0.3709
    1W        W36409  20.146   1.749   7.034  0.2535 -0.2328 -0.0028
    1W        W36410   4.759  17.507   6.512  0.0278  0.0271  0.0351
    1W        W36411   4.383  12.420   8.331  0.1045 -0.0527 -0.1662
    1W        W36412   1.746   4.170   7.579 -0.0533  0.1202  0.0332
    1W        W36413  24.275  28.636   0.963  0.0107  0.0998 -0.2639
    1W        W36414  13.868  19.385   2.145  0.1623  0.1182  0.1231
    1W        W36415   0.715   4.955   7.566  0.2318  0.2656  0.0595
    1W        W36416  16.245   2.487   0.171  0.1900 -0.2479  0.2600
    1W        W36417   9.432  23.184   7.433 -0.3638  0.0203  0.2005
    1W        W36418  24.982  25.792   7.332 -0.0929 -0.3016  0.1112
    1W        W36419  28.197  19.799   2.864  0.0085 -0.2327  0.0187
    1W        W36420  10.625  15.298   0.517 -0.2632 -0.0472 -0.2360
    1W        W36421  18.563  26.711   8.381 -0.2383  0.1886 -0.1687
    1W        W36422   0.982  20.364   2.084 -0.1999  0.0833 -0.2958
    1W        W36423   7.822   3.439   2.730 -0.2801 -0.1782 -0.1428
    1W        W36424  19.126   7.842   1.389  0.1769  0.3335  0.0030
    1W        W36425  22.343   8.668   0.262 -0.4148  0.0145  0.0977
    1W        W36426   7.668  25.683   6.429  0.3177  0.4245 -0.0516
    1W        W36427  12.367  11.360   1.987  0.0731  0.4741  0.1872
    1W        W36428   1.044  29.273   6.185  0.0396  0.0088 -0.0698
    1W        W36429  28.379   3.999   2.601 -0.0590 -0.1108  0.4353
    1W        W36430  14.620   1.664   3.521 -0.0033 -0.0487  0.0077
    1W        W36431  23.903  21.977   8.118 -0.0087 -0.1929  0.0429
    1W        W36432  26.275  12.201   8.402 -0.2198  0.0802  0.1483
    1W        W36433  16.694   5.238   2.258  0.0137 -0.2968  0.1488
    1W        W36434  21.983  24.819   1.218 -0.2291  0.1096 -0.2223
    1W        W36435   8.783  25.455   7.701  0.0438  0.1814  0.1136
    1W        W36436   9.200  20.210   0.055  0.3357 -0.1617 -0.3116
    1W        W36437  10.071  26.306   6.934 -0.1010 -0.3318 -0.0827
    1W        W36438   2.077  29.589   2.439 -0.0804 -0.1103  0.1340
    1W        W36439  14.258   8.689   8.441 -0.1004  0.0616 -0.3778
    1W        W36440  27.244  23.066   6.897  0.2357  0.1260  0.0075
    1W        W36441  16.276  15.868   8.603 -0.0883 -0.0521  0.1457
    1W        W36442   9.751   5.735   2.970 -0.2483 -0.1722 -0.3052
    1W        W36443   3.709  13.524   0.344 -0.1399 -0.1308 -0.1922
    1W        W36444  26.108   5.490   2.643  0.1359  0.0298 -0.2034
    1W        W36445  14.148  26.960   3.498  0.2322  0.2271 -0.2822
    1W        W36446  21.154   3.822   9.007  0.1377 -0.0191  0.0022
    1W        W36447  11.278   6.351   1.599 -0.0610 -0.1710  0.0290
    1W        W36448  10.678   6.531   7.515 -0.0611 -0.1751  0.3313
    1W        W36449   6.490   1.904   8.881 -0.1708 -0.0143 -0.3014
    1W        W36450  22.368  13.927   9.334 -0.0218 -0.0548 -0.3035
    1W        W36451  16.918   3.993   1.026 -0.0297 -0.0845 -0.0582
    1W        W36452  16.424  22.596   8.367  0.0028 -0.1619 -0.0337
    1W        W36453   5.627  18.795   7.780 -0.1133 -0.0113 -0.0835
    1W        W36454  17.431   2.855   8.499 -0.3823 -0.1391 -0.2684
    1W        W36455  22.065  13.612   7.550  0.1952  0.2581  0.3750
    1W        W36456   0.292  24.062   8.997 -0.1200 -0.0602  0.0180
    1W        W36457  11.171  19.290   0.075 -0.1179  0.3605  0.0050
    1W        W36458  19.626   8.593   1.625 -0.1855 -0.1680  0.1125
    1W        W36459  11.312  26.250   7.276 -0.2738 -0.2418 -0.2133
    1W        W36460  27.322  26.954   8.840 -0.0874  0.0908 -0.1466
    1W        W36461  21.442   9.818   7.988 -0.0418 -0.1393  0.1163
    1W        W36462  15.017  28.404   8.026 -0.1141  0.0298  0.0666
    1W        W36463  29.127  12.341   8.231 -0.1445  0.1179 -0.1101
    1W        W36464  11.241   8.415   9.148  0.0394 -0.1779  0.4025
    1W        W36465  21.046   2.977   7.332  0.1001 -0.1428  0.0055
    1W        W36466   9.489  23.976   7.399 -0.1872  0.0716  0.1515
    1W        W36467  19.214   9.795   1.262  0.0294  0.0532 -0.0363
    1W        W36468  11.605   7.832   0.602 -0.1329  0.5450  0.1646
    1W        W36469  12.821  10.419   2.482 -0.3167 -0.0673  0.1247
    1W        W36470   0.427   4.197   7.261 -0.0633  0.1468  0.0359
    1W        W36471  23.886  29.446   2.020 -0.0368 -0.0331 -0.0991
    1W        W36472  11.171   1.189   2.758 -0.0138 -0.2852  0.0938
    1W        W36473  24.376  27.862   0.213  0.2545  0.0535 -0.0672
    1W        W36474   8.593  12.084   2.198  0.1595  0.1062 -0.1763
    1W        W36475   7.388  20.457   6.272 -0.0998  0.1213 -0.0730
    1W        W36476   5.919   5.839   2.104  0.0482  0.2465 -0.1256
    1W        W36477  28.917  29.065   0.336  0.1093 -0.4043 -0.0755
    1W        W36478   3.027  13.253   8.054  0.4655 -0.3914  0.1176
    1W        W36479   7.740   8.637   2.371 -0.1723  0.0549 -0.1651
    1W        W36480   1.015   6.039   7.870  0.3793  0.1538 -0.0282
    1W        W36481   3.345  20.103   6.532  0.1031 -0.1805 -0.0527
    1W        W36482  23.270  29.020   2.676 -0.1611  0.0669  0.0612
    1W        W36483  11.262   8.450   8.616  0.1918  0.0466  0.2161
    1W        W36484  19.854  26.882   2.438 -0.1203 -0.0224 -0.0638
    1W        W36485  13.895  24.340   2.187 -0.0438  0.1930 -0.1229
    1W        W36486  15.832   7.424   8.848 -0.3535 -0.2393  0.1449
    1W        W36487   9.022  19.836   8.641  0.0969 -0.1548  0.0515
    1W        W36488   2.183  18.856   0.700 -0.3793 -0.2004  0.0078
    1W        W36489   9.123  29.686   9.015  0.1424 -0.0371 -0.2005
    1W        W36490   4.381  18.989   2.433  0.3063  0.1942 -0.1257
    1W        W36491  21.572  26.658   1.935 -0.2954 -0.1209 -0.2495
    1W        W36492  24.421   6.595   1.603  0.0010  0.0779 -0.0940
    1W        W36493  16.674  23.926   6.966 -0.1481 -0.0638 -0.0317
    1W        W36494  18.190  18.302   0.959  0.0221 -0.0297 -0.1836
    1W        W36495   2.461   4.688   7.752  0.2121 -0.0714 -0.0170
    1W        W36496  24.703   5.006   9.269 -0.1123  0.1360  0.0787
    1W        W36497   2.393  19.263   8.110 -0.0318 -0.0133  0.0656
    1W        W36498  25.818   2.587   7.553  0.0276 -0.1200  0.1805
    1W        W36499  20.638  19.884   1.963  0.1160  0.1039  0.0229
    1W        W36500  20.407  14.221   9.348  0.1305 -0.1461 -0.5130
    1W        W36501  28.733   7.378   8.474  0.1080 -0.0325  0.2878
    1W        W36502  28.767   1.150   9.387  0.0847  0.2460 -0.0680
    1W        W36503  23.898   3.820   1.994  0.0542  0.2433  0.0051
    1W        W36504  21.846   6.644   1.079 -0.2086  0.4604  0.0185
    1W        W36505  13.803  20.916   1.899 -0.1745 -0.0067  0.1073
    1W        W36506  23.532  10.738   1.523 -0.2931  0.1052 -0.1480
    1W        W36507   2.806  20.110   6.704  0.0975 -0.1565  0.0796
    1W        W36508  12.072  24.240   0.772  0.1118 -0.0916  0.1070
    1W        W36509   8.908  24.515   5.794  0.0100  0.0911 -0.0108
    1W        W36510  26.387  24.480   6.463  0.1312  0.0621 -0.3964
    1W        W36511  20.643  20.808   0.105 -0.0507 -0.1145 -0.1137
    1W        W36512  27.436   0.480   3.162  0.0483 -0.1221 -0.0170
    1W        W36513   9.082  28.275   1.903  0.2010  0.1725 -0.0813
    1W        W36514  25.616   0.569   1.784  0.0325 -0.0320  0.2473
    1W        W36515  28.525   6.989   6.483  0.0626  0.3169 -0.2657
    1W        W36516  17.870   9.004   8.946  0.1079 -0.0686  0.1072
    1W        W36517  12.544  12.720   7.863  0.0063  0.0255  0.0329
    1W        W36518   6.815  18.177   8.502 -0.0335 -0.1917  0.1215
    1W        W36519  20.500   3.941   0.231 -0.1358  0.0336 -0.1958
    1W        W36520  29.626   5.865   1.443 -0.0361 -0.1027 -0.4742
    1W        W36521  26.023  18.981   6.334  0.1365 -0.2170 -0.4639
    1W        W36522  17.159   8.272   7.280 -0.0816 -0.0472  0.1273
    1W        W36523  21.607   7.163   8.250 -0.1007 -0.0694 -0.3125
    1W        W36524   0.388   0.325   1.691  0.0585 -0.1916  0.2437
    1W        W36525   7.156  23.139   8.253  0.0883  0.0307 -0.1435
    1W        W36526  15.423  21.072   1.077 -0.0675  0.2850  0.2007
    1W        W36527  14.384   3.431   0.518 -0.0725  0.0075  0.0087
    1W        W36528   1.107  13.900   2.112  0.2274 -0.2023 -0.1055
    1W        W36529  24.746  12.108   0.740  0.1719 -0.0254 -0.1199
    1W        W36530   5.568   2.330   8.508 -0.2416 -0.1086 -0.1274
    1W        W36531   8.532   2.200   7.806 -0.2221  0.3165 -0.1994
    1W        W36532  28.757  20.130   1.865  0.1356 -0.2603 -0.2175
    1W        W36533  12.216  14.704   7.750  0.4508  0.0925 -0.0589
    1W        W36534  23.612   5.036   9.075  0.3233  0.0587  0.1723
    1W        W36535  18.838   8.808   6.620  0.1331 -0.0441  0.2349
    1W        W36536   1.436  28.890   2.456  0.1356  0.0176  0.0256
    1W        W36537  19.491  11.562   6.219  0.1153 -0.1236 -0.0849
    1W        W36538  19.972  21.809   1.141  0.2912  0.0735 -0.1597
    1W        W36539  20.906   0.459   0.207 -0.0994  0.1242  0.0565
    1W        W36540  12.196  28.065   3.052  0.0779 -0.1920 -0.5483
    1W        W36541  23.683  14.228   8.781 -0.0834 -0.1311 -0.2848
    1W        W36542   2.667  25.300   1.812  0.0813 -0.0038 -0.0156
    1W        W36543  22.679  28.983   8.522  0.4314 -0.1078 -0.2110
    1W        W36544   3.818  15.504   1.121 -0.4015 -0.0484 -0.0161
    1W        W36545   0.097   3.764   0.508 -0.1922  0.3342 -0.3088
    1W        W36546  23.182   2.329   2.755 -0.2384 -0.1261  0.2926
    1W        W36547   4.003  26.440   0.287 -0.0284 -0.1063 -0.3454
    1W        W36548  10.321  24.353   9.290  0.0785  0.1421 -0.1636
    1W        W36549   7.054  14.930   1.419 -0.2680  0.2116 -0.0144
    1W        W36550  17.249  21.513   2.353 -0.0471  0.2775 -0.0131
    1W        W36551  11.598  12.955   7.910  0.2797  0.0313 -0.1127
    1W        W36552  27.789   1.760   0.214  0.2609 -0.0024  0.2355
    1W        W36553  26.912  13.810   6.695  0.1823  0.3274 -0.0992
    1W        W36554  10.782   6.018   7.404 -0.3911 -0.1330  0.2797
    1W        W36555  23.780   7.247   2.110  0.1826 -0.1376  0.0066
    1W        W36556   6.911  25.090   6.696  0.0247 -0.0379  0.2628
    1W        W36557  12.811   2.866   8.756  0.3985  0.2600  0.1757
    1W        W36558  25.764  16.309   1.378 -0.0103 -0.0721 -0.1324
    1W        W36559  10.061  16.853   0.781 -0.0112  0.0003  0.1396
    1W        W36560  25.609  20.273   8.262 -0.1948 -0.1321  0.1213
    1W        W36561   1.474   0.843   9.276  0.1604  0.3833  0.0683
    1W        W36562  13.932   3.210   0.675 -0.1353  0.0384  0.0274
    1W        W36563  19.691  28.936   8.006  0.1566  0.1649  0.1437
    1W        W36564   7.540   7.580   0.081 -0.0614  0.1067  0.1163
    1W        W36565  13.517  29.301   3.196 -0.1994  0.2216  0.2255
    1W        W36566   5.694   4.569   2.627  0.5873  0.0441  0.0160
    1W        W36567  22.814  13.224   6.829  0.1816 -0.1258 -0.0439
    1W        W36568  21.992  24.446   0.886  0.1489  0.2383 -0.0631
    1W        W36569  10.720  10.917   7.444  0.2147 -0.2331 -0.0102
    1W        W36570   8.184   2.345   7.448  0.0863  0.0748  0.1107
    1W        W36571  18.297   1.459   9.403  0.0838 -0.0939 -0.0041
    1W        W36572  20.249   0.714   7.995  0.1159 -0.1111  0.1710
    1W        W36573   1.212   6.204   9.394  0.1192  0.2730 -0.0866
    1W        W36574  10.736  24.415   8.167 -0.1240 -0.1477 -0.0502
    1W        W36575  15.533   0.756   1.752  0.0170  0.1065  0.1421
    1W        W36576   2.991  16.477   8.301  0.0818  0.0904 -0.0513
    1W        W36577  27.352  24.380   0.415 -0.0273 -0.0839  0.0638
    1W        W36578  20.419  23.597   2.611  0.0319 -0.2415  0.4275
    1W        W36579   4.828  25.144   8.451  0.2388  0.1248 -0.0409
    1W        W36580   8.348  23.478   5.493 -0.1715  0.3397  0.0381
    1W        W36581  21.576  11.995   2.470 -0.0480 -0.2172  0.3548
    1W        W36582   6.821   2.077   7.826  0.3472 -0.1056  0.1332
    1W        W36583   8.128   8.950   7.816  0.0535  0.1131 -0.4536
    1W        W36584  13.128  18.797   0.081 -0.0541  0.0620 -0.0458
    1W        W36585   5.518  15.996   7.426 -0.0412  0.0610  0.3062
    1W        W36586   9.466   5.419   0.890  0.1618  0.2319 -0.3506
    1W        W36587   1.195  19.130   8.743  0.0772 -0.1125  0.1853
    1W        W36588  22.879  15.036   0.769 -0.2317 -0.1983  0.0857
    1W        W36589   7.545  18.816   7.054  0.1453  0.0560 -0.0782
    1W        W36590   3.380  27.017   2.062 -0.0886 -0.4340  0.1965
    1W        W36591  10.527  23.159   9.291  0.1621  0.0075  0.1067
    1W        W36592   3.197   8.550   0.765  0.0576  0.2230 -0.0241
    1W        W36593  21.356   6.393   2.554  0.1696 -0.0887 -0.0036
    1W        W36594   9.782  14.238   8.000  0.1183  0.0131 -0.2188
    1W        W36595  24.054  14.364   1.819 -0.0152 -0.1914 -0.0645
    1W        W36596  21.718   1.375   8.280  0.0618  0.2565  0.2325
    1W        W36597   7.752   9.611   2.750  0.3743 -0.0839  0.2950
    1W        W36598  17.686   9.317   7.828 -0.3154 -0.1566 -0.0842
    1W        W36599  14.720  14.111   1.886 -0.3696 -0.1280  0.1417
    1W        W36600  11.514  20.071   9.212 -0.0436 -0.2131  0.0272
    1W        W36601   4.252  10.491   0.427 -0.0631 -0.0615 -0.0142
    1W        W36602   4.702  12.559   6.888 -0.0515  0.1496 -0.4138
    1W        W36603  18.879  14.773   7.086 -0.2413 -0.1329 -0.0679
    1W        W36604   4.370   7.921   6.861  0.2960 -0.2131 -0.0520
    1W        W36605  15.369   4.989   8.351  0.0666 -0.1407 -0.2290
    1W        W36606  18.449  20.231   7.946 -0.0651  0.2484 -0.1135
    1W        W36607  12.757   6.943   8.444 -0.2230  0.1458 -0.1356
    1W        W36608   6.033  29.517   7.502  0.0216  0.0919 -0.1293
    1W        W36609   9.436   2.823   2.291  0.0491  0.2969 -0.2168
    1W        W36610   3.567  18.780   5.580 -0.1376  0.3913  0.2064
    1W        W36611  12.579   9.771   7.953  0.0926 -0.0784 -0.1674
    1W        W36612  20.883  22.648   7.913  0.1059 -0.0865  0.1295
    1W        W36613  13.057  24.161   9.202  0.2213  0.0193  0.3624
    1W        W36614  18.792  23.977   7.679 -0.2399  0.3778  0.1120
    1W        W36615   9.868  12.299   2.470  0.0639 -0.0435 -0.3689
    1W        W36616  29.379   4.040   2.457 -0.1271 -0.3185 -0.2613
    1W        W36617  21.298  27.588   7.643  0.3363  0.0900  0.0276
    1W        W36618   9.233   2.778   8.372 -0.2398  0.0398  0.0378
    1W        W36619  25.124  28.862   9.149 -0.0703 -0.0276  0.2209
    1W        W36620  21.362   0.960   8.457 -0.2076 -0.1207 -0.1798
    1W        W36621  28.610  23.457   0.964 -0.1508  0.6004 -0.1218
    1W        W36622   2.927  27.178   0.962 -0.3956 -0.0661 -0.2406
    1W        W36623  26.574  27.687   1.830 -0.0532  0.3194  0.0431
    1W        W36624  21.476   2.398   1.547 -0.2548 -0.3075 -0.2223
    1W        W36625  11.921  15.923   7.160  0.0876  0.0440  0.2260
    1W        W36626  18.405   1.206   8.862  0.2164  0.1069  0.0669
    1W        W36627   8.975  25.377   6.343  0.0009 -0.1354 -0.3515
    1W        W36628   5.189  16.717   1.219  0.1972  0.2403 -0.2120
    1W        W36629   5.155  17.707   0.531 -0.1545  0.0168  0.1323
    1W        W36630  21.667  20.632   1.885  0.0642 -0.0999  0.0972
    1W        W36631   6.868   3.414   2.974 -0.1381  0.2871 -0.0700
    1W        W36632  21.807  26.901   8.413 -0.0585 -0.1181  0.3497
    1W        W36633  16.742  29.154   8.981 -0.0047  0.0912 -0.1310
    1W        W36634  11.111  18.261   7.091  0.2653 -0.0993  0.0806
    1W        W36635  28.397  23.113   0.533  0.0756 -0.0748  0.0833
    1W        W36636  20.943  28.195   0.510  0.0663 -0.0371  0.0198
    1W        W36637  28.616  24.291   9.106  0.1627 -0.0513 -0.0788
    1W        W36638  11.893  26.927   7.324 -0.0584  0.1022 -0.0465
    1W        W36639  17.394  15.917   9.443  0.2199 -0.0022  0.2308
    1W        W36640  22.030   9.256   1.607 -0.0251 -0.2219  0.3187
    1W        W36641  19.045  12.810   7.486 -0.2910 -0.3186 -0.0662
    1W        W36642   4.552  24.616   2.502 -0.2013  0.1164  0.2073
    1W        W36643  15.224  17.523   0.386  0.1247 -0.0541 -0.1335
    1W        W36644   9.114   6.150   3.645  0.2417  0.4450 -0.1611
    1W        W36645  22.606  14.827   7.434  0.0352  0.0248 -0.0467
    1W        W36646  27.178  25.239   6.243  0.0705  0.1226  0.2085
    1W        W36647  29.407  16.344   1.172 -0.1423 -0.4904 -0.2139
    1W        W36648  20.693  28.932   1.380 -0.1722 -0.0806  0.2160
    1W        W36649   9.786  20.340   8.266  0.0997  0.1060 -0.2154
    1W        W36650   3.852  13.069   0.073  0.0269  0.0388 -0.1101
    1W        W36651  26.769  11.979   2.468 -0.0223  0.2212 -0.1012
    1W        W36652  13.078   2.075   1.411 -0.0259 -0.0773 -0.0983
    1W        W36653  15.808   7.902   1.902  0.0105 -0.0641  0.2672
    1W        W36654  14.906  10.704   9.266 -0.2499  0.0747 -0.0958
    1W        W36655  12.212   5.222   8.865  0.2613 -0.0213  0.0776
    1W        W36656   6.658   5.691   2.428  0.0525  0.1102  0.1564
    1W        W36657   9.065   4.765   1.854  0.0219 -0.3352 -0.2172
    1W        W36658   7.406  18.049   7.974 -0.0905  0.3322  0.2155
    1W        W36659   7.346   0.570   1.144 -0.2429  0.3036  0.1882
    1W        W36660  11.840  24.899   9.126 -0.2239 -0.0874  0.1117
    1W        W36661   5.479  18.866   1.275  0.1749  0.1653 -0.0541
    1W        W36662   3.887  21.779   7.979  0.0698  0.0143  0.1986
    1W        W36663   6.265  16.130   2.514  0.3639 -0.4090 -0.0339
    1W        W36664  22.933   8.698   8.746 -0.1746  0.0876  0.0551
    1W        W36665   8.756   5.537   7.926 -0.0740  0.1832  0.3027
    1W        W36666  21.649  18.540   8.468 -0.1957  0.1454  0.4463
    1W        W36667   8.284  15.874   8.726  0.0151 -0.0158 -0.1276
    1W        W36668  18.754  13.599   8.884 -0.0914 -0.1013  0.0096
    1W        W36669   0.435   1.855   8.143  0.4738  0.1292 -0.1005
    1W        W36670   5.597   0.192   2.950  0.0376 -0.0608 -0.2463
    1W        W36671   5.321   4.324   9.054 -0.2513 -0.1737  0.5134
    1W        W36672  13.983  26.305   0.725 -0.1834  0.1139 -0.2357
    1W        W36673  20.668   8.485   9.409 -0.0545  0.3058 -0.3753
    1W        W36674   4.266  28.833   0.900  0.2347 -0.1466  0.3515
    1W        W36675  18.443   2.956   7.999  0.2268 -0.2307  0.2202
    1W        W36676   1.243  10.838   2.703 -0.0865 -0.0702  0.1668
    1W        W36677  25.359  27.041   2.581 -0.0380 -0.3295 -0.0043
    1W        W36678  10.670  29.529   3.729 -0.0765 -0.1666  0.1565
    1W        W36679  16.228  28.226   0.123  0.1764 -0.0900 -0.2170
    1W        W36680  28.161  13.627   7.790 -0.2687  0.1169 -0.0181
    1W        W36681  15.459   1.076   0.921  0.1636  0.0264  0.5579
    1W        W36682   5.326   8.800   1.888 -0.0204 -0.2887  0.0527
    1W        W36683  11.358  23.848   1.453 -0.1137  0.1943  0.2479
    1W        W36684   0.961  16.674   0.061 -0.1035 -0.2182  0.0689
    1W        W36685  27.291   0.001   7.146 -0.1695  0.2180  0.0663
    1W        W36686  11.746   0.192   0.733 -0.1310 -0.1105 -0.1867
    1W        W36687   6.432   9.739   0.779  0.1171 -0.0755  0.0608
    1W        W36688   1.548  12.489   0.576 -0.0164 -0.0277 -0.2962
    1W        W36689  23.495  24.349   2.027  0.2307 -0.3263  0.3111
    1W        W36690   7.177   0.820   7.082 -0.1138 -0.0573  0.0867
    1W        W36691   4.652  18.661   2.231 -0.0792  0.0569 -0.1414
    1W        W36692   1.160   0.200   0.728  0.1367 -0.2178  0.1121
    1W        W36693   3.985  25.616   7.515 -0.0459  0.0123  0.0249
    1W        W36694  13.411   9.699   1.185 -0.1667 -0.1660 -0.1730
    1W        W36695   5.269  17.202   6.247  0.0319 -0.0697 -0.0715
    1W        W36696  27.335  16.064   9.303 -0.0641  0.0813 -0.2348
    1W        W36697  18.330  29.479   8.943 -0.1052 -0.4340  0.2556
    1W        W36698  28.175  11.362   1.484 -0.2235  0.3166 -0.0958
    1W        W36699  13.357   1.057   9.094  0.0264 -0.3327 -0.1712
    1W        W36700  17.590  28.633   7.107 -0.0906 -0.0653  0.2175
    1W        W36701   2.433   1.700   2.757 -0.2314 -0.1736  0.2557
    1W        W36702  11.971  26.589   7.939 -0.2647  0.3418  0.2430
    1W        W36703   3.941  28.037   2.747  0.1762  0.1407  0.0406
    1W        W36704   9.893  25.891   0.746  0.2590 -0.2081  0.3693
    1W        W36705   6.411   7.828   0.191 -0.1563 -0.0928  0.1670
    1W        W36706  19.370  23.328   9.173 -0.0764 -0.0903 -0.1365
    1W        W36707   3.530  27.732   0.572 -0.0939 -0.2802  0.2516
    1W        W36708  24.854  24.870   8.765 -0.1763 -0.0487 -0.1695
    1W        W36709  14.062  24.989   2.067  0.1714 -0.1331 -0.3928
    1W        W36710  23.162  14.770   1.339  0.6001 -0.1948  0.0060
    1W        W36711  10.929  24.095   8.608  0.1887  0.1574  0.2288
    1W        W36712   2.692   7.173   7.932 -0.0483  0.1092  0.1518
    1W        W36713  18.364   6.518   8.548  0.1745  0.0709 -0.0561
    1W        W36714  22.616  13.590   1.927 -0.1381 -0.2044 -0.1419
    1W        W36715   1.792   6.396   1.657  0.2236  0.0233  0.0538
    1W        W36716  23.009  21.762   6.402 -0.0933  0.1796  0.0491
    1W        W36717  13.836  26.411   9.374 -0.0625  0.1341  0.1856
    1W        W36718  25.208  15.561   0.160  0.2375  0.0275 -0.2592
    1W        W36719  14.526  20.478   7.424 -0.1317  0.0354 -0.0120
    1W        W36720  18.978   8.578   0.675 -0.1152  0.0953 -0.2895
    1W        W36721  29.047  16.226   6.596 -0.0048 -0.0416 -0.1371
    1W        W36722  22.127   0.196   0.138  0.2248  0.1850  0.0007
    1W        W36723   6.546  13.736   9.413  0.0018 -0.0588 -0.1659
    1W        W36724  12.484   1.727   7.955 -0.1365  0.0877  0.2775
    1W        W36725   4.212   6.520   7.908 -0.3215  0.2717  0.1960
    1W        W36726   0.888  23.742   2.201 -0.1879  0.2218  0.2136
    1W        W36727  24.597   0.628   9.457 -0.1113 -0.1033 -0.0251
    1W        W36728  27.791   0.766   8.538  0.2213  0.0411  0.1087
    1W        W36729   8.849  14.980   9.336  0.0368 -0.1374  0.2470
    1W        W36730  25.760   5.053   2.746  0.2424 -0.3339 -0.3287
    1W        W36731   7.329  24.097   1.512 -0.0220  0.2938 -0.2009
    1W        W36732  14.954   2.612   8.521 -0.1283 -0.2789 -0.0900
    1W        W36733   8.612   3.047   0.922  0.1177 -0.2587  0.0518
    1W        W36734  23.326  20.467   7.432 -0.0746 -0.3752  0.2421
    1W        W36735  23.170   6.399   0.960  0.0531  0.3495 -0.1352
    1W        W36736   5.398  15.206   5.350  0.2309  0.1306  0.2274
    1W        W36737   1.350   0.306   2.013 -0.1824 -0.0801  0.0784
    1W        W36738   9.350  19.030   6.850 -0.1438  0.1707  0.0020
    1W        W36739  16.938  19.818   1.817 -0.2112 -0.0339  0.1952
    1W        W36740  12.005  22.011   6.238  0.1538  0.0587 -0.1045
    1W        W36741   3.424  16.812   7.439  0.0319 -0.0436  0.2192
    1W        W36742  29.601  16.979   6.582 -0.0309 -0.1659 -0.0106
    1W        W36743  26.621  12.438   6.460  0.2428 -0.2598 -0.1224
    1W        W36744   2.291  15.834   7.634  0.0340 -0.0332  0.2571
    1W        W36745   2.998  12.972   6.435  0.2030 -0.2028 -0.1080
    1W        W36746  28.424   9.781   1.017  0.1882 -0.1208 -0.0892
    1W        W36747   5.686   2.924   2.053 -0.0310  0.1115 -0.0356
    1W        W36748   1.585  20.687   5.477  0.0464 -0.4210 -0.0815
    1W        W36749  27.083  22.402   1.950  0.2653 -0.1517 -0.0071
    1W        W36750   5.172  26.908   2.636 -0.1399  0.0041 -0.2455
    1W        W36751   7.872  12.151   2.735 -0.1775 -0.0708 -0.1874
    1W        W36752  28.641  18.477   9.048  0.1684  0.3213 -0.2707
    1W        W36753   9.872   9.564   0.646  0.2418 -0.2427  0.0245
    1W        W36754  22.593  12.765   9.037  0.3494 -0.0702  0.0722
    1W        W36755  26.926  27.531   0.921 -0.1552 -0.0936 -0.2292
    1W        W36756  25.834  13.099   6.729 -0.0836 -0.1324 -0.1487
    1W        W36757  18.309  17.743   2.178 -0.2107  0.0637  0.5255
    1W        W36758  13.881  11.604   1.156 -0.0181  0.1480 -0.0161
    1W        W36759   7.407   4.980   2.089  0.1725 -0.0245  0.2198
    1W        W36760  15.465  12.067   9.132 -0.1856  0.0077  0.2071
    1W        W36761  26.843  26.186   7.423 -0.0885 -0.0285  0.0636
    1W        W36762  21.275  13.246   0.415  0.3236  0.1380  0.1212
    1W        W36763  14.497  11.067   7.682  0.2366 -0.1751  0.1716
    1W        W36764  17.046  23.386   8.105 -0.0675 -0.0191  0.3058
    1W        W36765  25.353  16.424   1.626 -0.0754  0.0197 -0.0418
    1W        W36766  26.579  28.855   1.087 -0.1228  0.0654 -0.0635
    1W        W36767  26.949  21.401   2.320 -0.0675 -0.2102  0.2200
    1W        W36768  15.897  20.792   9.131  0.2725  0.2985  0.1497
    1W        W36769  21.061  21.883   2.205 -0.0527  0.5044  0.0809
    1W        W36770   3.337   6.706   9.127  0.0428  0.3122  0.0852
    1W        W36771  20.967   4.174   9.345 -0.1299 -0.0185  0.1975
    1W        W36772  23.530   0.742   3.336  0.1562  0.2169 -0.3160
    1W        W36773  16.377  20.288   0.267 -0.3986  0.0070 -0.1232
    1W        W36774  13.789   9.976   1.759 -0.1002 -0.0343 -0.1318
    1W        W36775  15.412  29.221   8.078 -0.1064 -0.2341 -0.0303
    1W        W36776   6.348   0.860   3.360 -0.0391 -0.1914 -0.1834
    1W        W36777  24.348   9.423   6.953  0.2913  0.0987 -0.3600
    1W        W36778   5.549   2.858   2.996 -0.0926 -0.3562  0.1541
    1W        W36779  14.883   9.117   8.725 -0.2368 -0.4822  0.1235
    1W        W36780   4.889  12.330   1.981 -0.0881 -0.1689  0.1744
    1W        W36781   0.374  10.458   2.418  0.1005  0.2631  0.3188
    1W        W36782  28.095  26.833   6.104  0.0001  0.3625 -0.2853
    1W        W36783  25.388  24.026   7.570  0.1884  0.1316  0.1644
    1W        W36784  16.354   0.936   2.627 -0.0431 -0.0409 -0.0945
    1W        W36785   2.418   0.087   2.367 -0.2526  0.0613  0.1803
    1W        W36786  20.103  25.738   7.609 -0.0640 -0.0508  0.0995
    1W        W36787  26.924  28.848   8.886  0.2402  0.0660 -0.3405
    1W        W36788  10.935  25.978   7.472  0.1583 -0.2209  0.0437
    1W        W36789   8.267  11.848   2.921  0.0536  0.0367 -0.0977
    1W        W36790   9.013  26.261   0.233 -0.2371 -0.0050  0.0278
    1W        W36791  22.764  12.900   7.712 -0.0248  0.7918 -0.4594
    1W        W36792  12.094  12.897   7.727  0.0609  0.0694  0.2676
    1W        W36793  29.540  17.237   5.567 -0.1260 -0.2458 -0.2709
    1W        W36794  10.245  18.773   6.687 -0.2787  0.0497 -0.1843
    1W        W36795  26.651   6.026   0.628  0.2365 -0.0404 -0.3417
    1W        W36796   2.760   0.989   7.635  0.1073  0.3135  0.1152
    1W        W36797   5.940   1.827   0.994  0.1420 -0.0848 -0.1919
    1W        W36798   7.097  24.281   9.216 -0.1601  0.0621 -0.3702
    1W        W36799   2.159   6.271   9.281  0.0014 -0.0836  0.3285
    1W        W36800  13.908  12.370   1.780 -0.3099 -0.0628 -0.2269
    1W        W36801  16.486  10.507   9.287 -0.0510 -0.3442  0.0606
    1W        W36802  27.044  20.517   1.723  0.2881 -0.2273  0.0731
    1W        W36803   0.446  17.557   0.689 -0.2152 -0.0373  0.1907
    1W        W36804  24.755  12.592   7.933  0.1034 -0.2081  0.2675
    1W        W36805  24.606  26.541   1.858  0.1759  0.2960  0.0577
    1W        W36806   1.821  18.376   7.375 -0.1539  0.0710  0.2168
    1W        W36807  17.925  14.816   0.928 -0.3386 -0.0520  0.1179
    1W        W36808   6.559  19.097   8.060 -0.2446  0.0431  0.3870
    1W        W36809  29.567   6.561   2.207 -0.1426  0.1171  0.1271
    1W        W36810  10.918  24.747   0.945  0.0259 -0.0726 -0.1923
    1W        W36811  26.696   1.475   0.559 -0.1222 -0.0190  0.0457
    1W        W36812  27.688   2.734   2.167  0.0302  0.2597  0.2813
    1W        W36813   0.441  18.484   2.352 -0.0722  0.2592 -0.2566
    1W        W36814   6.680   5.435   0.710 -0.0547  0.2959  0.1571
    1W        W36815   0.630  12.015   8.571 -0.0578  0.0459  0.0684
    1W        W36816  29.481  14.139   7.346  0.1681 -0.2098 -0.2091
    1W        W36817   0.270   1.403   3.553  0.5273  0.2432  0.1091
    1W        W36818  20.156   6.849   7.181  0.2912  0.0111  0.2826
    1W        W36819  17.540   3.067   8.941 -0.1059  0.0901 -0.0152
    1W        W36820   3.674  15.381   0.672 -0.1480  0.0711 -0.3191
    1W        W36821   9.904  25.229   7.614 -0.3147  0.4256  0.0538
    1W        W36822  28.263  27.575   0.431  0.0790 -0.1596 -0.1474
    1W        W36823   1.489  23.529   8.432  0.1570 -0.3824 -0.1339
    1W        W36824   6.570  28.669   7.559 -0.1399  0.2005 -0.2842
    1W        W36825  28.888  29.026   1.183 -0.1814  0.0421 -0.1064
    1W        W36826  16.287  25.197   6.881 -0.2928  0.1408  0.1055
    1W        W36827  19.757  11.978   9.332 -0.1943 -0.1761 -0.0831
    1W        W36828   1.683  28.014   9.108  0.4207 -0.0288 -0.3776
    1W        W36829  28.920   1.504   8.635 -0.0447 -0.2698  0.0161
    1W        W36830   6.509   3.043   7.353 -0.4397 -0.0112  0.1624
    1W        W36831  17.161  16.758   8.032 -0.2644  0.1379 -0.1578
    1W        W36832  10.657   9.933   0.940 -0.3411  0.0884  0.0499
    1W        W36833  20.647  11.106   7.606 -0.3126  0.2880  0.0043
    1W        W36834   6.157  19.817   5.785  0.0456 -0.1403 -0.1043
    1W        W36835   1.563   0.075   0.419 -0.0872 -0.3008  0.0611
    1W        W36836   9.424   6.597   8.123 -0.0072  0.2437  0.1684
    1W        W36837  24.535  19.430   7.349  0.1016 -0.1800 -0.3669
    1W        W36838   5.294   2.585   2.092 -0.2229  0.0046 -0.0208
    1W        W36839  28.347  13.113   7.899 -0.3107  0.0502 -0.1799
    1W        W36840  26.223  25.079   6.852  0.0911 -0.1701 -0.1705
    1W        W36841  13.095   2.907   0.769 -0.3635 -0.1085 -0.0989
    1W        W36842  25.190  24.080   1.256 -0.0061 -0.2204  0.1322
    1W        W36843   7.680  26.566   1.362  0.0095  0.1210 -0.3005
    1W        W36844  20.747   5.219   6.539 -0.2709  0.0862 -0.1667
    1W        W36845   0.030  12.102   7.702 -0.2342  0.0844  0.0295
    1W        W36846   9.559  17.086   8.717  0.0311  0.1138  0.0948
    1W        W36847  22.760  28.309   9.267 -0.0169  0.3769 -0.0935
    1W        W36848  21.396   1.969   1.196  0.0055  0.1751  0.3233
    1W        W36849  12.075  11.535   7.923 -0.1342  0.0202 -0.0390
    1W        W36850  19.290  24.609   8.130  0.1000  0.1794 -0.1954
    1W        W36851  23.268  21.827   8.974 -0.2186  0.0600  0.0917
    1W        W36852   6.265  16.757   8.631 -0.0907 -0.0374 -0.1163
    1W        W36853  26.868   3.373   2.088 -0.1190 -0.2254 -0.1138
    1W        W36854   5.375  16.919   8.590  0.5878  0.0609  0.1576
    1W        W36855  22.824   7.467   7.736 -0.2499 -0.0013  0.0590
    1W        W36856  21.021  14.881   7.076 -0.1485  0.1606  0.1113
    1W        W36857  14.343  21.953   7.723 -0.1166 -0.0329 -0.1068
    1W        W36858   7.365   9.831   7.753 -0.0931  0.0057  0.5043
    1W        W36859   5.265   5.267   3.158  0.2243  0.0089 -0.0483
    1W        W36860   0.873  17.237   6.678 -0.0007 -0.1450 -0.2164
    1W        W36861  17.102   0.991   3.354  0.0875 -0.0562  0.0495
    1W        W36862  25.538  11.628   6.899  0.0851 -0.2172 -0.0611
    1W        W36863   7.221  25.432   2.430  0.0440 -0.0561 -0.0154
    1W        W36864   5.696   0.501   9.079  0.0632  0.0654  0.1285
    1W        W36865   4.874   5.261   2.825  0.0015 -0.0961  0.0353
    1W        W36866   8.220  22.590   6.664  0.2352  0.0444 -0.0424
    1W        W36867   9.058   2.403   1.507  0.1404  0.3349  0.0533
    1W        W36868  29.041   2.007   8.516 -0.0220 -0.0566 -0.1966
    1W        W36869   7.860   3.484   0.506 -0.1765 -0.0603  0.2206
    1W        W36870  24.976  28.064   0.937 -0.1612 -0.1387 -0.4263
    1W        W36871   1.359  17.955   6.478  0.1240 -0.1244  0.1179
    1W        W36872  22.359   4.743   9.278 -0.3077  0.0166 -0.1550
    1W        W36873   7.579   8.717   0.630  0.1145  0.1603 -0.0084
    1W        W36874   4.957   2.969   0.592 -0.5514 -0.0468  0.0739
    1W        W36875  25.561  14.104   0.554 -0.0457 -0.3804 -0.3570
    1W        W36876  26.548  14.142   8.452 -0.3590  0.2614  0.0449
    1W        W36877  22.728   5.252   0.132 -0.1447 -0.3664  0.1037
    1W        W36878  29.637   6.848   3.379 -0.1634 -0.3072 -0.1147
    1W        W36879  26.552   3.779   1.934 -0.0574 -0.6395  0.2416
    1W        W36880  21.583  10.653   1.683  0.0242  0.1636  0.0490
    1W        W36881  27.665  23.379   7.683 -0.1291 -0.2257  0.4089
    1W        W36882  24.432  16.456   6.545 -0.2157  0.0926  0.1228
    1W        W36883  24.500   7.616   0.758 -0.0078  0.0823  0.1027
    1W        W36884  29.466  22.847   1.557  0.1159 -0.0749  0.0258
    1W        W36885  21.902   7.675   8.829 -0.0873 -0.0565  0.1093
    1W        W36886   8.043   4.503   0.559 -0.0631 -0.0640 -0.1643
    1W        W36887  28.371  13.110   9.236 -0.1187 -0.0555  0.0874
    1W        W36888   5.150  26.987   0.794 -0.0023 -0.0232 -0.0419
    1W        W36889  24.866   5.469   2.025 -0.0390  0.1015 -0.3067
    1W        W36890  22.895   8.824   8.249  0.1616  0.0138 -0.3302
    1W        W36891  29.024  28.868   2.217  0.1436 -0.0859  0.1697
    1W        W36892   3.001   5.824   2.748  0.2388  0.1387 -0.0358
    1W        W36893  16.655   8.198   7.108  0.0324  0.1130 -0.0682
    1W        W36894  25.471  19.619   6.595 -0.1328  0.1746  0.1593
    1W        W36895   8.160  21.822   9.302  0.3148  0.0710 -0.3413
    1W        W36896  19.620  19.661   8.571  0.2836  0.3801  0.0130
    1W        W36897   7.613   8.450   1.649 -0.0039 -0.1236 -0.1111
    1W        W36898   9.376  26.572   1.928  0.1449 -0.0430  0.3386
    1W        W36899   0.553   1.618   7.728 -0.0589 -0.0084  0.1315
    1W        W36900  21.451   4.587   1.232 -0.1123  0.0945  0.0640
    1W        W36901  25.678  20.266   2.257  0.1312 -0.1863  0.2712
    1W        W36902   1.250  24.160   0.966  0.0511  0.1390 -0.0097
    1W        W36903  21.580  22.134   2.293  0.3871 -0.2679 -0.1609
    1W        W36904  14.801  26.621   1.276 -0.0523  0.1367  0.2790
    1W        W36905   4.621   1.165   8.355  0.2381  0.0627 -0.3815
    1W        W36906  24.103   9.735   0.002 -0.2496  0.3179  0.1957
    1W        W36907  26.376   6.450   2.003 -0.3478 -0.0872  0.2061
    1W        W36908  23.862  15.513   7.395 -0.2381 -0.0524  0.0228
    1W        W36909   3.988   7.772   3.166 -0.2607 -0.1526  0.2181
    1W        W36910   4.069  16.315   8.621 -0.2500 -0.1086 -0.0903
    1W        W36911   1.378  20.815   9.044 -0.3877  0.0932  0.1125
    1W        W36912  20.167   6.342   6.994  0.1148 -0.0305  0.0483
    1W        W36913   6.290  18.744   8.911 -0.0117  0.1129 -0.0150
    1W        W36914  28.258  22.558   7.595  0.0203 -0.1210  0.0780
    1W        W36915  18.983   3.288   1.194 -0.1676 -0.0038 -0.1943
    1W        W36916   7.122  11.968   8.928  0.1932 -0.1290  0.2524
    1W        W36917   7.575   8.169   0.092  0.1005 -0.0566 -0.1065
    1W        W36918   4.548  11.301   2.481 -0.1079 -0.1783 -0.1793
    1W        W36919   7.513  18.300   0.546 -0.0868  0.2669 -0.0893
    1W        W36920  25.438   5.490   9.180 -0.0313 -0.0331 -0.0209
    1W        W36921   3.566   8.715   7.677 -0.1864 -0.2421  0.2130
    1W        W36922  13.756  21.643   9.032  0.0678 -0.3193  0.1488
    1W        W36923  10.027  17.427   0.841  0.1231 -0.1960  0.1053
    1W        W36924   0.434  17.799   0.015  0.2611  0.3992 -0.2201
    1W        W36925   3.591  11.321   2.677 -0.1667  0.1028 -0.0702
    1W        W36926  13.848  17.713   6.511 -0.0905 -0.0706 -0.4683
    1W        W36927  14.240  26.400   9.040  0.1853 -0.0716  0.3586
    1W        W36928   3.534  23.540   9.423  0.2545  0.2552  0.6714
    1W        W36929  18.479   0.765   8.662  0.1534 -0.3177  0.0876
    1W        W36930  17.010  24.622   1.236 -0.0019 -0.0565  0.2221
    1W        W36931   1.332  21.713   0.642  0.0369  0.2229  0.0565
    1W        W36932  25.007   6.393   7.764  0.3259 -0.3866  0.0711
    1W        W36933  16.319   7.973   2.035  0.0244  0.1732  0.3222
    1W        W36934  11.207   1.504   8.255 -0.1670 -0.3068 -0.1166
    1W        W36935  13.486   4.280   2.488 -0.1711 -0.2888  0.1718
    1W        W36936   1.209   3.160   0.581  0.0314  0.0690 -0.0556
    1W        W36937  24.710  18.165   3.150  0.1439  0.1870 -0.0383
    1W        W36938  13.307  11.003   8.585  0.1989  0.0965  0.0512
    1W        W36939  14.856  28.407   8.742  0.0214 -0.0087 -0.3581
    1W        W36940  12.171  28.663   1.057 -0.0510 -0.2514  0.2276
    1W        W36941  28.198  17.048   8.174 -0.2936 -0.2931 -0.1803
    1W        W36942   4.090  18.333   5.687 -0.0054  0.2423 -0.2085
    1W        W36943  16.143   9.560   0.438 -0.0069 -0.0862 -0.3165
    1W        W36944  21.502   9.365   2.089  0.1161  0.1025 -0.1987
    1W        W36945   5.963   2.226   9.126 -0.3092 -0.0638 -0.0358
    1W        W36946  13.434  27.908   8.148 -0.1245 -0.0091 -0.0554
    1W        W36947  22.361   5.884   8.159 -0.3917 -0.1664  0.0089
    1W        W36948  13.227  24.033   7.644  0.2194 -0.1100  0.0305
    1W        W36949   0.935  16.331   1.173 -0.0610  0.4441  0.1393
    1W        W36950  20.610  21.285   0.413 -0.1807  0.0881 -0.2196
    1W        W36951   9.583  20.592   6.882  0.2519  0.1357 -0.2247
    1W        W36952  15.034   6.816   9.219 -0.0202 -0.1791  0.0731
    1W        W36953   0.383   2.698   0.852  0.0311 -0.3920 -0.1247
    1W        W36954   3.840   0.332   0.918 -0.1787  0.0856  0.3451
    1W        W36955  14.069   8.045   9.217  0.1471 -0.1198 -0.1123
    1W        W36956   1.655  17.621   2.026  0.0865 -0.5382  0.0000
    1W        W36957   4.101   1.698   6.557 -0.0384  0.3365  0.2859
    1W        W36958   6.468  22.634   9.145 -0.0461  0.0999 -0.2894
    1W        W36959  25.050  27.061   6.665  0.2109  0.4493  0.1319
    1W        W36960  22.275  10.270   7.789  0.2500 -0.4004 -0.0011
    1W        W36961  17.024  23.258   1.313 -0.2591 -0.0869 -0.1421
    1W        W36962  23.756  11.523   8.892 -0.3593 -0.2087 -0.1406
    1W        W36963  17.047   9.645   1.866  0.1084  0.3464  0.2184
    1W        W36964  15.428   0.293   1.072  0.0990 -0.2427  0.3012
    1W        W36965  26.909  11.452   9.108  0.0479 -0.1702  0.0450
    1W        W36966  12.042  12.024   1.890 -0.0715 -0.2499  0.1915
    1W        W36967  23.409   0.890   2.803 -0.0323  0.1315  0.0398
    1W        W36968  15.147   3.150   0.436  0.1004 -0.0156  0.0251
    1W        W36969   4.162  23.823   1.736  0.1655  0.0013 -0.0740
    1W        W36970   0.994   6.888   1.432  0.1035 -0.0303 -0.3028
    1W        W36971  21.392   5.085   9.170 -0.0211  0.0350  0.1273
    1W        W36972   1.792   6.789   7.701  0.1277  0.1238  0.0895
    1W        W36973  20.374   5.459   6.784 -0.3968 -0.1652 -0.0198
    1W        W36974   1.621  19.740   8.210 -0.0317  0.0162  0.0808
    1W        W36975  18.709   2.842   0.084  0.4466 -0.1336  0.2532
    1W        W36976  25.379  19.942   8.632  0.0304 -0.2890  0.0581
    1W        W36977   5.252  12.627   2.836 -0.4789 -0.0649  0.0155
    1W        W36978  17.083  26.565   0.776 -0.1565 -0.0436 -0.0830
    1W        W36979  27.646   8.052   1.828 -0.1267 -0.2139 -0.3349
    1W        W36980  21.219   8.415   0.250 -0.1128  0.3229  0.1526
    1W        W36981  10.986  18.622   8.207  0.1502 -0.0021 -0.3824
    1W        W36982   7.682  25.607   1.030 -0.0907  0.4418 -0.1910
    1W        W36983   0.615   6.813   9.378  0.1213 -0.0284 -0.0832
    1W        W36984   1.496   6.655   2.005 -0.1558  0.0046  0.1003
    1W        W36985  13.520  28.773   3.065  0.1974  0.0189 -0.0250
    1W        W36986   1.957  19.680   8.864 -0.1060  0.3006 -0.1225
    1W        W36987   0.853   5.601   8.684  0.0446  0.0250  0.1235
    1W        W36988   3.483   2.273   8.732  0.0848  0.2498 -0.0667
    1W        W36989  22.169  21.157   7.941  0.0039  0.1778  0.1028
    1W        W36990  10.978  28.448   0.049 -0.0556 -0.1953  0.1213
    1W        W36991   9.466  13.416   8.292 -0.0938 -0.0203 -0.0938
    1W        W36992  11.511   6.977   2.027 -0.2325 -0.2267 -0.0506
    1W        W36993  26.508  26.782   7.395  0.0419 -0.1237  0.1175
    1W        W36994   5.417   9.759   2.870 -0.0586 -0.0477 -0.2902
    1W        W36995  24.563  28.161   6.612 -0.0532 -0.1794  0.0079
    1W        W36996  26.997  11.414   8.604 -0.1030 -0.1595 -0.0367
    1W        W36997  11.649   7.572   8.896  0.0847 -0.0737  0.0830
    1W        W36998   7.525  26.858   8.350 -0.1445  0.1434 -0.2424
    1W        W36999  10.173  23.111   8.799  0.0243 -0.3487  0.3838
    1W        W37000  15.093   6.471   2.631  0.1180  0.0681 -0.0203
    1W        W37001   7.924  14.809   8.328  0.2237 -0.1727 -0.3309
    1W        W37002  12.940   3.170   3.314  0.3201  0.1389  0.1275
    1W        W37003  16.457  22.071   8.491  0.0741 -0.0917  0.2662
    1W        W37004  16.427   6.597   6.990  0.1305  0.1591 -0.3123
    1W        W37005  21.240  27.863   8.249 -0.2715 -0.1393  0.0120
    1W        W37006  11.544  29.726   8.674 -0.1631  0.1491 -0.1761
    1W        W37007  19.244   1.100   7.002 -0.0076 -0.0180 -0.0583
    1W        W37008  18.845   7.812   0.926 -0.1274  0.0350  0.3574
    1W        W37009  17.212  11.428   9.424 -0.0023 -0.3052 -0.1321
    1W        W37010  23.093   2.452   8.192 -0.1250 -0.0791 -0.2576
    1W        W37011  27.448   6.946   0.816  0.3200 -0.0941 -0.2164
    1W        W37012   1.431   9.113   6.474 -0.2062  0.1143  0.0670
    1W        W37013   8.512   8.590   2.851  0.0673 -0.3163  0.0716
    1W        W37014  11.755  17.844   1.558  0.3344 -0.0580  0.0429
    1W        W37015   2.950  20.521   0.056  0.1350  0.0419  0.0269
    1W        W37016   4.975  21.661   0.696  0.2295 -0.1703  0.0166
    1W        W37017  22.184  19.753   0.595 -0.1998  0.0066 -0.2220
    1W        W37018   4.755   3.884   1.550 -0.2437 -0.2422 -0.0817
    1W        W37019   3.457  20.994   0.631  0.0300 -0.1642 -0.2019
    1W        W37020  27.636  25.147   9.289  0.0308  0.1744 -0.3576
    1W        W37021  27.875  20.881   7.023  0.1553  0.0793  0.1271
    1W        W37022  13.630  26.905   1.344  0.0460  0.2806  0.0850
    1W        W37023  14.100  21.794   0.948 -0.0348  0.0360 -0.1855
    1W        W37024  28.384  22.739   7.124 -0.1422  0.1054 -0.0019
    1W        W37025   9.454   0.742   2.712  0.0038 -0.1056 -0.0237
    1W        W37026  11.764   7.265   9.348  0.2678 -0.0945  0.0262
    1W        W37027  20.214   3.745   8.811 -0.1329  0.0011  0.0330
    1W        W37028  14.400  21.489   1.675  0.1689 -0.2203 -0.2947
    1W        W37029   7.252   9.476   1.580 -0.0056 -0.0944  0.0808
    1W        W37030  20.948   4.887   1.986  0.1724  0.4352  0.0303
    1W        W37031  16.875  24.821   9.444  0.0126 -0.0845  0.0494
    1W        W37032   6.311  20.929   7.338  0.0560  0.0312 -0.0399
    1W        W37033  16.861  27.523   0.705 -0.2259  0.0793 -0.2254
    1W        W37034   7.254  20.074   6.601 -0.3715  0.1576 -0.2972
    1W        W37035   9.713  26.281   1.675  0.3332 -0.0419  0.0346
    1W        W37036  15.627   9.672   8.705  0.0944 -0.1196 -0.0418
    1W        W37037  15.481  26.553   8.265 -0.2575  0.1622 -0.2526
    1W        W37038  17.912   7.049   0.429  0.1729  0.1518 -0.0940
    1W        W37039   4.430  21.012   2.481  0.5149 -0.2100 -0.2221
    1W        W37040   7.622  24.948   2.346 -0.1233  0.0078 -0.1664
    1W        W37041  28.482   3.282   2.534 -0.1420  0.0870  0.0695
    1W        W37042  10.183   1.355   2.766  0.2343  0.5718 -0.2462
    1W        W37043  17.615  19.736   1.887 -0.1881  0.3784 -0.0607
    1W        W37044   8.141  22.202   7.023  0.1206  0.0414 -0.1428
    1W        W37045  17.665   6.242   8.127 -0.1122 -0.0386 -0.0662
    1W        W37046   4.374  28.888   8.601 -0.0011  0.1065 -0.2148
    1W        W37047  21.478   4.509   2.585 -0.0854 -0.2614  0.1603
    1W        W37048  21.747   5.856   1.940 -0.0014  0.3953  0.0169
    1W        W37049   6.704   4.498   8.080 -0.2228  0.2076 -0.0850
    1W        W37050  13.578  20.421   7.096  0.2336 -0.3054 -0.2588
    1W        W37051  26.866   1.165   7.478 -0.1638 -0.4159  0.2393
    1W        W37052   3.794  10.644   0.533 -0.0709 -0.1501  0.4805
    1W        W37053  14.442  29.821   0.608  0.0035  0.1985  0.1765
    1W        W37054   4.952  16.640   8.616  0.1968  0.0421 -0.0074
    1W        W37055   4.518   8.370   8.174 -0.0573 -0.3058  0.1168
    1W        W37056  10.808  27.425   2.941 -0.1135 -0.2061  0.0948
    1W        W37057  12.917  28.574   8.239 -0.0170  0.0697 -0.0220
    1W        W37058   7.015  12.225   3.173 -0.1578  0.0250 -0.1834
    1W        W37059  21.357  19.843   2.429 -0.1277 -0.0672  0.0643
    1W        W37060   1.263  13.445   0.909  0.1287  0.1165 -0.1230
    1W        W37061   8.397  23.065   7.084  0.4160  0.2177 -0.1291
    1W        W37062   9.351  12.666   7.032 -0.0666 -0.1202  0.0852
    1W        W37063  24.296  18.173   9.275  0.2720 -0.1529  0.3343
    1W        W37064  20.378  11.345   1.242 -0.2129 -0.1454 -0.2565
    1W        W37065   3.587  18.499   8.708 -0.3091  0.3266  0.2606
    1W        W37066   0.998  26.055   1.461  0.2053  0.0780 -0.1130
    1W        W37067  25.584  22.646   2.047 -0.0967 -0.0588 -0.0095
    1W        W37068  28.315  20.691   2.362 -0.1427 -0.1915 -0.0293
    1W        W37069  20.410  28.150   0.579  0.0781 -0.1930  0.0839
    1W        W37070  28.575  21.429   1.331 -0.3645  0.0303  0.0039
    1W        W37071  21.597  24.550   2.499 -0.2114 -0.0974 -0.0917
    1W        W37072   9.097   6.054   2.084 -0.1496 -0.0014  0.3463
    1W        W37073  29.016  28.051   6.953  0.1510 -0.1696 -0.0523
    1W        W37074  17.470  18.425   7.978 -0.2413  0.0086  0.1879
    1W        W37075  26.199  17.552   1.986 -0.0626  0.2420  0.2237
    1W        W37076   3.783  29.300   1.560  0.1604 -0.3462 -0.2267
    1W        W37077  13.474   9.379   0.831 -0.1020 -0.2940 -0.2365
    1W        W37078  19.976  15.948   2.097 -0.1213 -0.3901  0.0684
    1W        W37079  20.690  26.524   8.586 -0.2119 -0.1564 -0.1166
    1W        W37080  21.020  27.640   6.823  0.0688 -0.0414 -0.2593
    1W        W37081  19.897   7.242   6.978  0.1591 -0.4063 -0.0402
    1W        W37082  28.744  18.634   7.642  0.2076  0.4298  0.0622
    1W        W37083  12.842  15.307   1.573 -0.1773  0.4520 -0.0870
    1W        W37084   6.203   0.678   2.918 -0.1043  0.2112 -0.1048
    1W        W37085  13.568  24.824   8.648 -0.0652  0.2204 -0.0021
    1W        W37086   5.917   3.618   3.442  0.0527  0.0610  0.0046
    1W        W37087   0.239  20.021   1.057 -0.2441 -0.0234 -0.0826
    1W        W37088  25.639  16.525   6.252 -0.2507  0.2087  0.0502
    1W        W37089  27.583  10.385   2.347  0.0272 -0.1261 -0.0257
    1W        W37090   7.750   4.160   2.042 -0.0319  0.0146  0.0345
    1W        W37091  11.205   5.077   1.902  0.0628 -0.0298  0.0070
    1W        W37092  26.603  25.744   0.305 -0.1106  0.1307  0.2373
    1W        W37093   5.734  17.145   0.165 -0.0197  0.4033  0.2784
    1W        W37094  10.057  25.778   6.845  0.0709  0.2289  0.2939
    1W        W37095  21.618   2.986   9.417  0.1141 -0.2388 -0.3054
    1W        W37096   2.603  23.904   0.419  0.0257  0.0834  0.0730
    1W        W37097  18.106   7.638   8.184  0.1054  0.2101  0.0383
    1W        W37098  29.215  24.018   1.712 -0.0652 -0.0551  0.1071
    1W        W37099  23.145  15.240   1.177 -0.1507 -0.0490 -0.1513
    1W        W37100  25.224  28.259   2.382  0.0144  0.2545 -0.0561
    1W        W37101   8.335  13.616   7.237 -0.1687  0.0095 -0.0612
    1W        W37102  15.017   6.607   0.402 -0.1302 -0.1404 -0.1201
    1W        W37103   6.874  23.175   1.781  0.0633  0.0656  0.2070
    1W        W37104  27.379  18.173   8.152  0.1693 -0.0484 -0.1220
    1W        W37105   6.850  23.252   7.060 -0.2037 -0.1979  0.2056
    1W        W37106  17.311   7.694   7.665  0.1319  0.0038  0.2479
    1W        W37107  15.446  12.704   7.611 -0.0919 -0.0819 -0.0236
    1W        W37108  18.409   9.146   0.171 -0.1778 -0.0273  0.0945
    1W        W37109   5.027  20.107   6.463 -0.0637  0.3268 -0.1929
    1W        W37110  10.513   5.687   3.472  0.3041  0.0382  0.0168
    1W        W37111  23.081  23.367   0.419 -0.1964 -0.0052  0.0845
    1W        W37112  18.452  28.301   2.032 -0.0572 -0.0084  0.2012
    1W        W37113  10.706  27.391   0.705 -0.2076  0.2808 -0.1723
    1W        W37114   1.544  13.698   6.714 -0.2037 -0.1215  0.4164
    1W        W37115  25.376  26.672   6.848 -0.0218 -0.1064  0.0572
    1W        W37116   4.806  22.920   7.170 -0.1051  0.0317  0.2977
    1W        W37117   5.269  24.459   7.234  0.0120 -0.2055  0.2980
    1W        W37118  29.184   1.956   0.433  0.0635  0.0769  0.0103
    1W        W37119   2.013   5.013   7.077 -0.1058  0.0442  0.1100
    1W        W37120   7.762  22.304   6.591 -0.3704  0.2251 -0.0729
    1W        W37121  15.640  21.848   1.664 -0.1668  0.0283  0.1561
    1W        W37122  25.327  27.762   1.147  0.1874  0.1832 -0.1574
    1W        W37123   9.090   3.990   4.350 -0.1920  0.0161  0.0016
    1W        W37124  28.065  25.884   6.146 -0.2481  0.0025  0.1893
    1W        W37125   2.277   5.451   1.877 -0.2398  0.0897 -0.0918
    1W        W37126  14.648  13.480   6.650 -0.0949 -0.0834  0.2354
    1W        W37127  25.252   8.257   9.077  0.1302  0.1615 -0.0252
    1W        W37128  21.398  16.747   9.051 -0.1239 -0.0519 -0.0418
    1W        W37129  15.136  13.617   8.163  0.0970 -0.1674  0.0479
    1W        W37130  29.589   6.246   9.198  0.2445  0.0167 -0.1805
    1W        W37131   5.267  22.287   1.563 -0.0003 -0.0391 -0.3555
    1W        W37132  21.634  10.501   0.680  0.0737  0.1664 -0.1070
    1W        W37133   1.469  12.272   9.031  0.0250 -0.1187  0.1248
    1W        W37134  12.906  21.658   0.446  0.0068 -0.0048  0.1207
    1W        W37135  11.366  17.289   7.156 -0.1481 -0.1444  0.0731
    1W        W37136  19.037   0.596   3.613  0.0909  0.3253 -0.0396
    1W        W37137  26.999  27.957   8.893 -0.2648 -0.0964 -0.3383
    1W        W37138  24.850  12.471   1.637 -0.1742  0.0626 -0.0189
    1W        W37139  17.599  17.764   1.405 -0.0939  0.1921 -0.1739
    1W        W37140  20.854   8.047   1.023  0.2952 -0.0057  0.1450
    1W        W37141  16.145  19.056   1.140 -0.0785 -0.1282  0.2746
    1W        W37142   2.885  26.502   6.881 -0.1358 -0.1775 -0.0120
    1W        W37143   6.389  22.483   7.943 -0.0236 -0.1325 -0.1368
    1W        W37144  23.664  13.056   6.472  0.2139  0.1198 -0.0719
    1W        W37145  24.873  26.068   2.740 -0.0234  0.1565 -0.0422
    1W        W37146  28.269  12.048   5.622 -0.0375  0.2041  0.0022
    1W        W37147   5.688   1.082   1.263  0.1381  0.2135 -0.2224
    1W        W37148   2.935  12.533   2.875 -0.0566  0.0275  0.0275
    1W        W37149  22.323  25.506   8.995  0.1890  0.2776  0.0062
    1W        W37150   3.462  28.348   8.382  0.0342  0.1829  0.2105
    1W        W37151  14.100  10.461   7.186 -0.1050  0.2779  0.2166
    1W        W37152  16.500  13.486   7.769  0.1360  0.0212  0.1547
    1W        W37153  22.538  13.235   8.830 -0.1389  0.0450  0.2158
    1W        W37154   3.070  15.737   0.845 -0.0004 -0.0177  0.2629
    1W        W37155   3.121  17.295   1.099 -0.0801 -0.2023 -0.1294
    1W        W37156  26.454  12.704   9.204 -0.1057  0.1120  0.1317
    1W        W37157  18.245   2.141   3.276  0.2333 -0.1320  0.0525
    1W        W37158   8.995   8.657   2.658 -0.0699  0.0070 -0.1239
    1W        W37159  27.188  14.500   7.896  0.0403 -0.0024 -0.0057
    1W        W37160  27.186   9.039   8.523 -0.3143 -0.0687  0.1736
    1W        W37161  15.471  28.734   0.037  0.0394  0.2009 -0.2984
    1W        W37162   1.391   2.794   0.923 -0.1062  0.1362  0.2675
    1W        W37163  24.673  19.538   8.164  0.0254 -0.2299 -0.3488
    1W        W37164  18.613   8.719   0.089  0.0131  0.2282  0.2406
    1W        W37165   7.310  10.666   2.175 -0.0618  0.1553 -0.2390
    1W        W37166   8.866  24.501   8.779 -0.0181  0.0106 -0.1220
    1W        W37167  15.683  16.441   8.270  0.1239 -0.3557  0.0914
    1W        W37168   7.843  22.924   7.396 -0.0805  0.1701  0.1724
    1W        W37169  18.381  14.196   8.226 -0.0146 -0.0120 -0.0893
    1W        W37170   2.734   3.386   3.901 -0.4127  0.1627 -0.3065
    1W        W37171  15.606  25.487   1.808 -0.1094 -0.0669  0.0486
    1W        W37172   4.660  13.279   0.403  0.2292 -0.2565 -0.1310
    1W        W37173  28.125  20.674   7.457  0.2099 -0.0576  0.1404
    1W        W37174  20.263  21.132   8.352  0.0816 -0.1166 -0.1461
    1W        W37175  23.179  28.420   1.864  0.1033  0.4695 -0.1600
    1W        W37176   9.929   8.973   7.952  0.0031  0.1128  0.0097
    1W        W37177  22.750   0.725   8.493 -0.1955 -0.0122 -0.1445
    1W        W37178   1.591  14.000   2.577 -0.2342 -0.0046 -0.0589
    1W        W37179  10.802  11.824   6.902 -0.2370 -0.0391  0.1237
    1W        W37180   5.108   1.012   1.055  0.0273 -0.1197 -0.0526
    1W        W37181  18.081  14.279   9.158  0.2509 -0.1151 -0.2667
    1W        W37182  16.562   4.468   6.633  0.1131  0.0092 -0.1107
    1W        W37183  14.038  23.863   0.634 -0.0948  0.0008  0.3260
    1W        W37184   3.652   9.808   2.604 -0.0377  0.1707 -0.0189
    1W        W37185   2.877  25.703   0.216 -0.0224 -0.2796 -0.1933
    1W        W37186   8.701  18.491   2.190 -0.0894 -0.1099  0.0154
    1W        W37187   4.888   0.427   7.821 -0.0952  0.0885  0.2251
    1W        W37188   7.680  25.771   7.678 -0.1607  0.2061 -0.0545
    1W        W37189  20.558   6.095   9.203  0.0627  0.1582  0.2818
    1W        W37190   6.759  21.806   7.959 -0.0199 -0.2387  0.0076
    1W        W37191   0.200  11.010   7.132 -0.3133 -0.0235 -0.0546
    1W        W37192  12.897   8.215   6.947 -0.0037  0.0787 -0.2644
    1W        W37193  25.951   2.224   1.756 -0.1030 -0.0934  0.0633
    1W        W37194  28.041  17.230   0.658 -0.1800 -0.0564  0.2790
    1W        W37195  18.154  10.959   2.210  0.0728 -0.4734  0.2440
    1W        W37196   3.661  16.350   5.673 -0.1071 -0.0987 -0.0486
    1W        W37197  24.399   5.507   2.361 -0.1571  0.2605  0.1098
    1W        W37198  23.933  22.465   2.894  0.1169 -0.3573  0.1368
    1W        W37199   4.177   3.143   0.167 -0.1101 -0.0459  0.1558
    1W        W37200  23.030   5.560   9.215 -0.1415 -0.1190 -0.2349
    1W        W37201   6.212   8.662   0.934  0.1330 -0.3894 -0.0383
    1W        W37202   4.762   1.233   1.358 -0.0586  0.1871  0.0107
    1W        W37203  22.389  23.831   6.922 -0.2296 -0.1517  0.4193
    1W        W37204  11.747  11.057   1.174 -0.1223  0.1022  0.0957
    1W        W37205   2.548  27.931   8.101  0.1334 -0.0960  0.2104
    1W        W37206  18.213  27.695   7.944 -0.0510  0.1901 -0.0114
    1W        W37207  16.552   3.739   6.704 -0.0610  0.0188 -0.3489
    1W        W37208   3.812  29.390   8.131 -0.0131  0.3808 -0.0981
    1W        W37209   6.296   1.008   7.317  0.1321 -0.1326  0.3456
    1W        W37210  28.812  16.777   0.222 -0.2472 -0.2483 -0.1961
    1W        W37211  27.516  17.889   2.190 -0.0716 -0.3100  0.1056
    1W        W37212   6.529   5.529   7.129 -0.2385  0.1430 -0.1378
    1W        W37213   3.420  17.822   8.076 -0.0603 -0.1170  0.0943
    1W        W37214   0.354  19.544   8.012  0.3102 -0.3029  0.1125
    1W        W37215   3.893   4.275   2.472 -0.2647 -0.0358  0.1018
    1W        W37216   9.588  16.074   7.165 -0.0456 -0.2303 -0.0304
    1W        W37217  20.265  24.620   2.790 -0.4373  0.2506  0.0489
    1W        W37218  11.156  25.721   0.605  0.1652 -0.0198 -0.0838
    1W        W37219  24.658  21.503   8.512  0.0092 -0.1716  0.0287
    1W        W37220  18.561   4.926   8.920 -0.3248 -0.4234  0.0869
    1W        W37221  29.181  25.865   7.078 -0.0104  0.1089  0.2941
    1W        W37222   9.114  27.695   8.074 -0.1791 -0.1055  0.1784
    1W        W37223   8.249  24.330   0.149 -0.0175 -0.0140  0.1737
    1W        W37224  21.486  16.310   7.869  0.0253  0.0646 -0.2240
    1W        W37225  21.425  17.062   8.357  0.0020  0.2986  0.0932
    1W        W37226  15.513   2.418   7.593  0.0951 -0.1894 -0.0518
    1W        W37227   7.065   7.358   9.407  0.0548  0.0801 -0.3971
    1W        W37228   4.161   2.732   7.719  0.0886  0.0335 -0.1428
    1W        W37229  29.233   3.794   2.930  0.1125  0.2656 -0.0844
    1W        W37230   9.066  20.687   7.398  0.0948  0.1975  0.0623
    1W        W37231  23.480  21.157   1.376 -0.1754 -0.1244 -0.0419
    1W        W37232   2.527  23.004   5.974 -0.1082  0.1001  0.0333
    1W        W37233   4.499  25.664   1.924  0.0150 -0.0025  0.0367
    1W        W37234  21.804  27.379   8.714 -0.0805 -0.1264  0.0682
    1W        W37235  11.076  19.485   1.354  0.0891  0.1968 -0.1482
    1W        W37236  15.088  25.959   0.782  0.3191 -0.1947  0.0765
    1W        W37237   6.571  21.822   7.497 -0.2487  0.4020 -0.1532
    1W        W37238  11.580   5.311   9.261  0.2530 -0.2309 -0.0422
    1W        W37239  27.217  26.696   2.250 -0.0252  0.0709 -0.1096
    1W        W37240   1.166  15.029   9.329 -0.1194  0.0600  0.1430
    1W        W37241   1.415   3.204   3.328  0.0467  0.4637  0.0997
    1W        W37242   9.075   3.627   8.277  0.0982 -0.0973 -0.5818
    1W        W37243   4.359  18.627   0.521 -0.0878  0.0078  0.0425
    1W        W37244  11.750   7.336   2.289  0.0082  0.0912  0.2853
    1W        W37245   2.107   0.946   7.766 -0.0915  0.2640 -0.3205
    1W        W37246  25.128  11.988   1.519 -0.1242  0.0191  0.0583
    1W        W37247  11.030   1.950   8.245  0.1568  0.1401  0.2765
    1W        W37248   4.733   7.212   3.450  0.1929 -0.1447 -0.2144
    1W        W37249  19.768  26.697   1.527 -0.0105 -0.1754  0.0589
    1W        W37250  22.138  11.613   6.952  0.1286  0.0938 -0.0514
    1W        W37251  28.485  19.107   6.811  0.1067  0.2964 -0.0244
    1W        W37252   6.457   4.088   1.770 -0.2063  0.1777  0.0983
    1W        W37253  11.330  24.724   7.242 -0.2465  0.2047 -0.0080
    1W        W37254  29.294   7.229   8.741 -0.1846  0.0510  0.1143
    1W        W37255  28.250   5.408   0.675  0.2435  0.1628  0.0721
    1W        W37256   5.545   6.878   9.260  0.1193 -0.1720  0.0318
    1W        W37257  16.104  21.205   7.853 -0.2096 -0.2996  0.0642
    1W        W37258  25.483   7.788   9.167 -0.2812  0.3667 -0.0879
    1W        W37259  24.842  11.578   0.174 -0.2907  0.1726  0.0826
    1W        W37260  13.016  27.161   7.861 -0.1985  0.0836  0.1259
    1W        W37261  24.989  12.783   7.557 -0.4886  0.1239  0.1453
    1W        W37262   9.676  29.366   8.276 -0.0155 -0.2650  0.2179
    1W        W37263  23.138   6.797   3.420 -0.1010 -0.3781  0.0141
    1W        W37264  20.586  20.441   2.082 -0.1524  0.1629  0.1482
    1W        W37265  22.240  22.118   1.635  0.1272 -0.0865  0.0134
    1W        W37266  14.624  14.026   7.726 -0.1996  0.0170  0.0625
    1W        W37267  18.848   3.562   1.618 -0.0207 -0.1604  0.1945
    1W        W37268  19.002  11.210   8.129  0.0775  0.0941  0.1958
    1W        W37269   2.053   8.660   7.233 -0.1282  0.0368 -0.1688
    1W        W37270   6.723  17.745   5.684 -0.2024  0.1758  0.0659
    1W        W37271   6.459  14.472   1.236  0.0294 -0.1497 -0.1881
    1W        W37272  21.778  17.219   0.475  0.2847  0.0998 -0.2300
    1W        W37273  11.245  25.644   9.181 -0.1083 -0.0964  0.0964
    1W        W37274  14.256  12.783   1.872 -0.0668  0.2562  0.2665
    1W        W37275   7.830  25.454   8.600 -0.0289 -0.3036 -0.2151
    1W        W37276  18.172   6.182   7.955  0.0623  0.0829 -0.2516
    1W        W37277   0.425  29.217   7.313 -0.1545 -0.1993 -0.2077
    1W        W37278  19.939   9.248   9.273 -0.1842  0.2138  0.1601
    1W        W37279   6.128  21.626   1.274 -0.4760  0.1546 -0.1204
    1W        W37280   5.310  26.998   8.813  0.0154  0.0800 -0.0739
    1W        W37281  29.801   4.369   7.010  0.0241 -0.0269  0.4811
    1W        W37282  19.999  11.712   0.352 -0.0196  0.1486 -0.1631
    1W        W37283  15.813   4.840   8.110  0.0439  0.0339 -0.2905
    1W        W37284  27.752  24.362   0.046  0.1834  0.0283 -0.2369
    1W        W37285   5.374  16.305   6.356  0.2259 -0.0114 -0.0940
    1W        W37286  10.965  16.894   9.425  0.0766 -0.1289  0.2789
    1W        W37287  13.622  15.336   8.752 -0.0641 -0.2007 -0.2747
    1W        W37288   5.976   0.123   9.368 -0.1379 -0.1870  0.2147
    1W        W37289  21.119   9.265   0.834 -0.0110 -0.0238 -0.1421
    1W        W37290   4.586  28.742   7.579 -0.1342 -0.3277 -0.1276
    1W        W37291  27.674  25.209   1.774  0.1818 -0.0889  0.2314
    1W        W37292  13.456  21.057   1.099  0.1002 -0.0082  0.2547
    1W        W37293  27.829  15.165   2.149  0.0955 -0.0762 -0.0444
    1W        W37294  27.392  10.784   7.685  0.2736 -0.2303  0.1186
    1W        W37295  19.469  17.086   1.853  0.1225 -0.2022 -0.1958
    1W        W37296  21.412  13.331   8.138 -0.1602  0.3702  0.1441
    1W        W37297   1.264  22.368   1.657  0.0141  0.2370 -0.2559
    1W        W37298  25.127   9.503   0.944 -0.2336  0.2893  0.1700
    1W        W37299   3.784   2.673   1.869 -0.0224 -0.1852  0.2339
    1W        W37300  21.879  29.756   8.870  0.3336 -0.1827 -0.1190
    1W        W37301  16.197   6.941   2.953  0.1598  0.0853  0.1616
    1W        W37302  24.921  20.082   8.700  0.1027 -0.0800 -0.0144
    1W        W37303   4.734   7.628   6.674  0.2248  0.2186  0.0585
    1W        W37304  11.656   9.987   7.697  0.1300 -0.0059 -0.0378
    1W        W37305  18.837   9.099   0.477  0.0317 -0.0642 -0.0569
    1W        W37306  12.505  15.622   0.309 -0.0358  0.1697  0.1559
    1W        W37307   7.859  18.913   6.614 -0.0287 -0.2048 -0.0570
    1W        W37308  10.723   2.950   2.548 -0.1800 -0.0005 -0.0043
    1W        W37309  14.468  10.665   7.432 -0.2614  0.0013 -0.1934
    1W        W37310   1.316  26.969   2.615 -0.0249  0.2563  0.0644
    1W        W37311  29.075  11.567   9.014  0.0844  0.3619  0.3804
    1W        W37312  26.316  23.714   8.075 -0.2033 -0.0426  0.1862
    1W        W37313  20.958  13.023   7.379  0.0389 -0.0721  0.1372
    1W        W37314  19.701   6.158   6.811 -0.2648 -0.0101 -0.0101
    1W        W37315  11.169   9.038   2.797  0.0362 -0.1943  0.1143
    1W        W37316   6.053  29.309   0.846  0.0794 -0.0820  0.0517
    1W        W37317  15.626   8.864   8.098  0.0487  0.0792 -0.2289
    1W        W37318  19.534  22.096   1.252  0.0078  0.3220 -0.0079
    1W        W37319  21.487  25.986   1.528 -0.1907 -0.2529 -0.2666
    1W        W37320   4.479  24.235   1.688  0.1266 -0.0539  0.0339
    1W        W37321   2.578   3.637   3.155 -0.1786  0.1390  0.1982
    1W        W37322  21.198  10.276   8.909 -0.1163 -0.2189  0.1293
    1W        W37323  16.823  27.525   9.080 -0.1709  0.0417  0.0809
    1W        W37324   5.598  18.483   7.413 -0.0626  0.1260  0.0282
    1W        W37325   4.376  12.903   1.924 -0.0790  0.0726 -0.0430
    1W        W37326   4.895  19.814   8.690 -0.0868 -0.1853 -0.1395
    1W        W37327   1.649  19.522   0.090 -0.0314  0.0105 -0.0791
    1W        W37328   9.688  24.749   6.280 -0.1307  0.1019 -0.3773
    1W        W37329  15.261  12.775   9.102 -0.2550  0.2257  0.3835
    1W        W37330  23.875   2.302   2.247 -0.0536  0.0495  0.0163
    1W        W37331   5.385  24.732   0.836 -0.0049 -0.0328 -0.0790
    1W        W37332   0.487   9.601   0.695 -0.1315  0.0002  0.1814
    1W        W37333  28.142  21.749   9.312 -0.4424 -0.1991  0.0364
    1W        W37334  27.503   4.081   1.869  0.1685 -0.0215 -0.3298
    1W        W37335   5.888   8.219   2.067 -0.0425 -0.0535  0.0866
    1W        W37336  11.202   4.055   7.443  0.0685 -0.0158  0.1344
    1W        W37337   5.779   5.580   0.134  0.1151  0.1342 -0.0631
    1W        W37338   6.055   6.252   0.218  0.3532  0.1010  0.0700
    1W        W37339  20.526   4.090   6.403 -0.3202 -0.0444 -0.1201
    1W        W37340  28.136   6.521   1.191  0.1669  0.0250  0.1521
    1W        W37341  13.374   1.576   0.688  0.2635 -0.2329  0.1028
    1W        W37342  21.396  21.663   4.012 -0.0513 -0.0813  0.0787
    1W        W37343  19.283   3.973   6.650 -0.0230  0.0520  0.0381
    1W        W37344  15.372  20.066   1.765 -0.0338 -0.1031 -0.2197
    1W        W37345   4.942  16.148   0.281  0.4642  0.0493  0.1799
    1W        W37346   1.625   5.401   2.584  0.1659  0.0246  0.0210
    1W        W37347   5.079  21.623   6.530  0.0461 -0.3681 -0.0829
    1W        W37348  27.972   7.735   9.165 -0.1372 -0.0794 -0.2283
    1W        W37349  23.191  20.191   8.671 -0.1922  0.0648  0.2271
    1W        W37350  22.733   5.870   2.493  0.0539  0.2254 -0.1117
    1W        W37351   5.580  20.490   9.034 -0.2308 -0.0108  0.1185
    1W        W37352   9.080   8.274   8.681  0.1778 -0.0134  0.3306
    1W        W37353  20.872  14.581   7.449 -0.0163 -0.0989 -0.0633
    1W        W37354   2.429   6.561   2.283 -0.0499 -0.1038 -0.0107
    1W        W37355   4.303   6.305   9.459  0.1617 -0.0949  0.0285
    1W        W37356   1.279  22.951   6.175  0.1212 -0.2914 -0.1466
    1W        W37357   1.843   7.503   7.228 -0.3061 -0.0412 -0.2003
    1W        W37358   6.800  17.817   0.349 -0.0738 -0.0093  0.0606
    1W        W37359   0.383  14.179   8.174  0.1952 -0.1008  0.1041
    1W        W37360   1.759  27.064   2.962 -0.1697  0.2747  0.1023
    1W        W37361  12.137   9.656   1.184  0.3797 -0.0179 -0.0709
    1W        W37362   0.786  23.206   7.342  0.0611  0.2718  0.0724
    1W        W37363   0.777  27.104   7.413  0.1215  0.3081 -0.2243
    1W        W37364  13.884  20.881   0.595 -0.3510 -0.4349 -0.3186
    1W        W37365  27.787  13.985   9.102 -0.1464  0.0707  0.0706
    1W        W37366  17.463  10.164   7.601 -0.4117 -0.0506 -0.4117
    1W        W37367  12.410   4.375   9.337 -0.0225  0.0120  0.1304
    1W        W37368   0.136   7.852   6.937 -0.1358  0.0147 -0.0026
    1W        W37369   2.427  15.099   9.459 -0.0372 -0.1192  0.3086
    1W        W37370   9.665   0.454   2.345 -0.1791 -0.1712  0.0068
    1W        W37371   1.662   3.314   0.240 -0.2218 -0.0253  0.1295
    1W        W37372   6.400  18.492   8.281  0.0024 -0.0021 -0.1832
    1W        W37373   9.244   4.834   8.536 -0.2792  0.1223  0.1468
    1W        W37374  29.589  14.719   1.998 -0.1623 -0.0088 -0.1731
    1W        W37375  25.907  10.275   0.133 -0.2404  0.0350  0.0501
    1W        W37376  25.218  14.968   8.895  0.0741 -0.1053 -0.3279
    1W        W37377  18.270  29.131   0.683  0.1450  0.2180 -0.0122
    1W        W37378  22.627  11.260   7.984 -0.1137  0.4341  0.0319
    1W        W37379  23.472  22.176   7.254  0.1311  0.0421 -0.0674
    1W        W37380  20.407  25.788   1.790  0.1045 -0.2598  0.1876
    1W        W37381  12.490  24.906   6.473 -0.3911 -0.1435  0.2132
    1W        W37382  27.971  16.179   8.829  0.0503  0.0570  0.2022
    1W        W37383  12.771  25.182   2.124 -0.0067  0.1843 -0.4285
    1W        W37384  24.651  27.091   7.541 -0.1661  0.1901  0.1480
    1W        W37385  19.667  25.133   9.337  0.0397 -0.2594 -0.4300
    1W        W37386   1.754  24.889   8.358  0.0871 -0.0589 -0.0619
    1W        W37387   7.729   8.164   8.758 -0.0560 -0.1849  0.0643
    1W        W37388   0.216   2.083   8.614  0.3823  0.1532 -0.2848
    1W        W37389   8.290  20.967   8.783 -0.3432  0.0764  0.2897
    1W        W37390   1.839  14.297   9.096  0.1626  0.1986 -0.1811
    1W        W37391  21.283   6.327   7.155  0.1286  0.1278 -0.2171
    1W        W37392   5.290  18.393   7.993 -0.0024 -0.2512 -0.1462
    1W        W37393   5.331   2.273   2.836 -0.1286 -0.1978  0.1118
    1W        W37394   3.596  21.349   0.240 -0.1774 -0.2594 -0.0370
    1W        W37395  25.193  29.702   8.386 -0.1910 -0.0458  0.0269
    1W        W37396   0.516   1.543   1.868  0.0911  0.3375  0.1318
    1W        W37397  22.683   6.645   6.190 -0.0076 -0.0836  0.0771
    1W        W37398  22.531   2.157   6.925 -0.1425  0.0015  0.1785
    1W        W37399   0.341   5.668   0.312  0.1918  0.0281  0.0581
    1W        W37400  20.319  25.658   7.189 -0.1408 -0.1925 -0.0632
    1W        W37401  16.396  21.074   0.856 -0.0682  0.1684  0.3924
    1W        W37402  15.763   1.031   6.625 -0.0543  0.0476 -0.2994
    1W        W37403  17.036  16.545   7.588 -0.2600  0.0175  0.1005
    1W        W37404   8.293  21.503   0.679  0.1892 -0.2936 -0.2061
    1W        W37405  13.875  12.954   1.595 -0.1135 -0.2304  0.0238
    1W        W37406  28.503   0.369   2.150  0.1766  0.0743 -0.0363
    1W        W37407   8.090  23.656   6.376  0.1385 -0.2127 -0.0873
    1W        W37408  28.576  10.047   9.395  0.1968  0.0386  0.2618
    1W        W37409  16.301  26.190   1.048  0.1167  0.1217 -0.2769
    1W        W37410   5.245  12.779   8.533  0.1239 -0.0474 -0.1516
    1W        W37411   4.250  15.844   8.485 -0.1447 -0.1061 -0.1329
    1W        W37412   6.807  11.865   3.484 -0.0095  0.0786  0.0924
    1W        W37413  29.788   9.573   7.112  0.1031 -0.2560 -0.1812
    1W        W37414  12.453  16.507   0.343 -0.1748  0.2737  0.2550
    1W        W37415   0.017   1.721   7.736  0.1517 -0.0370 -0.1101
    1W        W37416  18.245  23.416   7.472 -0.2206 -0.0405  0.3035
    1W        W37417  26.411   2.888   7.520  0.2579  0.0948  0.0072
    1W        W37418   9.457  22.093   1.186 -0.1292 -0.0059 -0.1002
    1W        W37419  23.698  22.010   2.633  0.2326  0.4668  0.0195
    1W        W37420   5.856   7.654   2.712  0.2091  0.1922  0.3428
    1W        W37421  13.499  16.795   1.642 -0.3666 -0.1662  0.0972
    1W        W37422  13.330  16.379   7.361  0.2674 -0.3971  0.0415
    1W        W37423  26.381   1.010   2.635 -0.1215 -0.3374  0.1363
    1W        W37424  23.776  25.490   0.277  0.1265  0.1237  0.2583
    1W        W37425   0.906   4.044   8.490  0.0610  0.2039  0.2141
    1W        W37426  21.988  27.738   1.953 -0.1544  0.1925 -0.2375
    1W        W37427   4.695  19.078   1.524  0.2412 -0.0147 -0.1357
    1W        W37428   8.699  15.142   6.582  0.0530  0.0740 -0.3449
    1W        W37429  22.875   6.764   9.135 -0.3861  0.2475  0.6305
    1W        W37430   1.900  17.019   7.862  0.0406  0.4263 -0.0529
    1W        W37431   1.908  23.220   5.434 -0.3937 -0.4031 -0.3184
    1W        W37432   1.717  27.715   1.845 -0.1684 -0.0595 -0.1485
    1W        W37433   1.226  22.171   7.188  0.0196  0.3890  0.0871
    1W        W37434  23.795   3.111   3.605 -0.0834  0.0586  0.0159
    1W        W37435  23.763   3.537   8.067 -0.1983 -0.1994  0.1115
    1W        W37436   8.226  14.450   7.186  0.3059  0.3878  0.3804
    1W        W37437   7.422  13.168   1.331  0.0251 -0.2043  0.0459
    1W        W37438  27.142   0.675   0.970 -0.2282 -0.1680  0.1664
    1W        W37439   8.277   8.046   2.792 -0.1526 -0.1107  0.1942
    1W        W37440  15.213   3.320   3.257  0.1385 -0.0534 -0.1118
    1W        W37441  16.124  26.866   9.229  0.0344  0.0408 -0.2128
    1W        W37442  10.029  17.075   0.216 -0.0658  0.0220 -0.0669
    1W        W37443  27.061   7.606   3.091 -0.0550  0.1008 -0.1098
    1W        W37444   9.677  20.559   8.750  0.0417 -0.1182  0.0451
    1W        W37445   6.398  22.965   8.116  0.2600 -0.2675  0.1769
    1W        W37446   5.105  14.673   6.136  0.1474 -0.0612  0.3859
    1W        W37447   8.409   9.939   7.578  0.0984 -0.0923 -0.1938
    1W        W37448   8.187  24.806   7.934 -0.0191 -0.1451  0.0988
    1W        W37449  16.713  17.605   8.198 -0.3754  0.3440  0.1245
    1W        W37450   5.671   8.704   9.394 -0.0153 -0.3713  0.3253
    1W        W37451   0.744   7.349   7.185  0.0218  0.1176 -0.3882
    1W        W37452  11.266   0.727   0.057 -0.2243  0.0022 -0.0891
    1W        W37453  23.306  28.103   2.260  0.2355  0.1601  0.3391
    1W        W37454  23.166   1.336   9.228  0.0818  0.1203  0.2115
    1W        W37455  28.196  18.018   1.606  0.2392  0.3380  0.4035
    1W        W37456  24.714   9.592   7.414 -0.1131 -0.1701  0.1649
    1W        W37457   0.941  23.322   0.607  0.2924 -0.0539  0.1974
    1W        W37458  25.478  21.736   7.144  0.1529 -0.1265 -0.0888
    1W        W37459  29.451  28.617   7.735  0.1325 -0.0013 -0.2989
    1W        W37460   3.965   3.637   0.041 -0.2491 -0.0482  0.2623
    1W        W37461  13.187  13.741   9.359  0.1086  0.1014  0.0175
    1W        W37462  23.247  25.843   9.123 -0.3949  0.1360 -0.0691
    1W        W37463  23.392  27.651   7.605  0.0838  0.0625 -0.1168
    1W        W37464  11.107  12.110   8.781 -0.0602  0.0951 -0.0739
    1W        W37465  21.791  16.453   9.160 -0.0979 -0.0387  0.2572
    1W        W37466  25.741  15.843   1.240  0.1835 -0.0774 -0.2155
    1W        W37467  24.263   8.462   7.605  0.1855 -0.0152 -0.0643
    1W        W37468  17.762   3.931   1.376 -0.1280 -0.3719  0.4634
    1W        W37469  25.823  12.642   7.797  0.0935 -0.0520  0.3169
    1W        W37470   6.354  15.119   2.718  0.0985  0.0281 -0.2022
    1W        W37471  17.094  22.325   9.335  0.1513 -0.2640  0.0700
    1W        W37472  13.045  17.576   0.114  0.1229  0.0952  0.3710
    1W        W37473  18.414   5.353   5.946 -0.0128 -0.4107  0.0330
    1W        W37474  28.645   6.456   6.501  0.0936 -0.3419 -0.0957
    1W        W37475  19.592  23.177   2.008 -0.1050 -0.0933  0.3085
    1W        W37476  12.057   1.246   0.411 -0.0768  0.3194 -0.3345
    1W        W37477  11.826   2.112   8.420  0.2794  0.0078 -0.3815
    1W        W37478  27.798  10.707   1.878  0.0312 -0.0552 -0.0540
    1W        W37479  10.362  25.748   8.766  0.2162  0.1165  0.0522
    1W        W37480   9.703  20.333   6.376  0.0775 -0.0861  0.2710
    1W        W37481   9.394   4.210   1.809 -0.3781  0.0722 -0.0681
    1W        W37482   7.623   8.959   7.979 -0.3194 -0.1828  0.0535
    1W        W37483  20.031  15.767   8.354 -0.0167  0.1244 -0.0210
    1W        W37484  13.293   1.437   8.664 -0.0140  0.0793 -0.0583
    1W        W37485   5.477  22.313   2.449 -0.0342  0.3075  0.1114
    1W        W37486   9.572   6.954   8.554  0.0933 -0.0196 -0.2238
    1W        W37487   8.343  18.534   0.103  0.1067 -0.1685 -0.0859
    1W        W37488   1.654  27.669   7.130 -0.0225  0.2721  0.1516
    1W        W37489  22.729  24.676   1.504 -0.0258 -0.0989 -0.2348
    1W        W37490  19.143  25.583   7.434  0.1931  0.0783  0.1854
    1W        W37491  29.530   1.612   9.214 -0.0513  0.3244 -0.0706
    1W        W37492   0.822   6.951   2.723 -0.3043 -0.3724  0.3136
    1W        W37493   2.341   2.787   8.301 -0.1729 -0.4951  0.1173
    1W        W37494  13.029  10.641   8.785 -0.2084  0.2892 -0.0416
    1W        W37495  15.766  25.830   2.606  0.0000  0.1928 -0.2110
    1W        W37496  29.007  20.651   7.909 -0.0042 -0.1501 -0.0960
    1W        W37497   8.273  21.176   7.296  0.1280  0.2823 -0.2577
    1W        W37498   5.495  23.396   5.774  0.3284 -0.1176 -0.0069
    1W        W37499  10.265  23.998   0.145 -0.1178 -0.2406  0.0743
    1W        W37500   4.771  15.050   8.044  0.0764  0.2884  0.2231
    1W        W37501   4.601  18.243   0.159  0.0045 -0.2064  0.0033
    1W        W37502   5.012  10.982   1.729 -0.2797  0.0306 -0.0317
    1W        W37503  27.487  23.522   0.139 -0.0057  0.0622  0.0063
    1W        W37504  14.028  10.953   7.314 -0.0060  0.1393  0.3399
    1W        W37505  24.009  27.331   6.502 -0.2311  0.0467 -0.1908
    1W        W37506  18.691  25.877   2.687  0.2555 -0.3195  0.0004
    1W        W37507   5.237   7.460   8.639  0.1814  0.0991 -0.0841
    1W        W37508  26.172   5.906   0.241  0.0812 -0.1115  0.0392
    1W        W37509   5.550  28.819   8.702 -0.2758 -0.1309 -0.1091
    1W        W37510   9.816   4.282   7.546  0.0229  0.1148  0.2906
    1W        W37511  11.650   0.199   1.532  0.2425  0.1529 -0.1501
    1W        W37512  13.474  15.790   8.708 -0.1472 -0.2101 -0.1953
    1W        W37513   6.122  17.403   0.251  0.0867  0.0507  0.0840
    1W        W37514   6.995   9.986   1.548  0.0497  0.0472  0.4066
    1W        W37515   2.790  24.374   9.311 -0.3966 -0.0844  0.0177
    1W        W37516   7.236  13.770   2.309 -0.0539  0.1685  0.2759
    1W        W37517  20.214  22.755   9.288  0.1960  0.1367  0.3098
    1W        W37518   8.984  21.247   6.304  0.0993 -0.0370 -0.1688
    1W        W37519  29.604  10.524   9.348  0.0394  0.2704 -0.0973
    1W        W37520   6.226  25.513   1.352 -0.0629 -0.0223 -0.0084
    1W        W37521  11.771   5.623   8.948 -0.0571  0.0919  0.1130
    1W        W37522  20.017  10.137   8.820  0.2991 -0.3523  0.1269
    1W        W37523   2.032  17.361   7.045 -0.1057  0.2394 -0.2538
    1W        W37524   1.525   5.144   7.160 -0.1513 -0.2939 -0.1449
    1W        W37525  14.351  15.257   7.175  0.0484  0.0375  0.2998
    1W        W37526  17.401  25.803   1.860  0.3404  0.0325  0.2200
    1W        W37527  25.774  27.743   1.357  0.2247 -0.2401  0.1676
    1W        W37528  12.875  26.160   8.248 -0.1170 -0.2310  0.0508
    1W        W37529   4.348  28.721   2.957 -0.0981 -0.2079  0.0625
    1W        W37530  25.419  20.628   2.056  0.0606 -0.0823  0.1966
    1W        W37531  10.230  28.073   2.558  0.0953 -0.0078  0.2055
    1W        W37532  24.845  17.158   0.509 -0.2429  0.0523 -0.0118
    1W        W37533  25.268  17.067   8.471  0.0741  0.1170 -0.1425
    1W        W37534  28.632   8.600   8.139 -0.2127 -0.1789  0.1871
    1W        W37535  13.123   2.564   6.940 -0.2612  0.0234 -0.0274
    1W        W37536  11.236  22.808   1.422 -0.1988  0.1358 -0.1352
    1W        W37537  19.877  10.240   6.426 -0.2169 -0.3303 -0.1548
    1W        W37538   1.605  15.651   8.880  0.0111 -0.1340  0.4223
    1W        W37539  18.252   3.820   9.413  0.2277 -0.0012  0.3347
    1W        W37540   1.467  20.526   7.691 -0.1395  0.0017  0.0193
    1W        W37541  27.519  18.338   2.638 -0.3542  0.0001  0.1216
    1W        W37542  28.325  19.262   1.157 -0.0787 -0.1087 -0.2692
    1W        W37543   8.599  11.742   3.252  0.0926  0.2199  0.1646
    1W        W37544  10.354  13.689   0.723 -0.0082 -0.0531  0.2752
    1W        W37545  16.985   8.249   9.008  0.2486  0.0654 -0.2498
    1W        W37546   0.737  29.091   0.675 -0.2654  0.1313  0.1450
    1W        W37547  28.835   7.786   6.336  0.2706  0.1571 -0.0336
    1W        W37548   4.167  16.595   1.215  0.0703 -0.0481  0.0109
    1W        W37549  28.288   0.538   0.944 -0.0049  0.0371 -0.0710
    1W        W37550  22.209   3.524   8.835  0.0369 -0.2108  0.0509
    1W        W37551   2.950   1.962   1.985  0.0577  0.2569  0.0899
    1W        W37552  24.110  13.528   8.302 -0.1616 -0.0240 -0.3168
    1W        W37553  21.912   8.292   6.805  0.2707  0.0083  0.0442
    1W        W37554   5.751  27.501   7.961 -0.0516 -0.0441 -0.0062
    1W        W37555  28.739   2.070   0.185 -0.0379 -0.1772  0.0689
    1W        W37556  29.780  15.820   0.100  0.0055 -0.1441 -0.1810
    1W        W37557  14.619   1.931   3.056  0.3301 -0.1355  0.0829
    1W        W37558   7.329  26.281   1.579 -0.3274 -0.1480  0.1092
    1W        W37559   3.132  27.140   8.003 -0.1272 -0.2755  0.1610
    1W        W37560  22.686   6.031   8.459  0.2250 -0.1331 -0.0670
    1W        W37561   7.925  18.791   6.116 -0.0009  0.1074 -0.4743
    1W        W37562  21.520  26.593   8.140  0.1032  0.0677 -0.3031
    1W        W37563  29.110  26.023   2.854  0.0418 -0.0665  0.0028
    1W        W37564  14.990   8.104   1.580 -0.0470 -0.1638  0.1291
    1W        W37565  25.306  26.370   0.418 -0.3529  0.3153  0.4575
    1W        W37566  26.831   3.698   1.547 -0.3425  0.1541  0.0064
    1W        W37567   6.878  24.098   1.892  0.0576  0.1336  0.3695
    1W        W37568   3.152   5.447   0.831  0.0499  0.0853 -0.0055
    1W        W37569  20.589  27.281   8.950 -0.1254 -0.0649  0.1374
    1W        W37570  18.301  22.971   7.808 -0.2517 -0.0112  0.1810
    1W        W37571  23.573   6.260   7.226  0.0201  0.0509  0.0753
    1W        W37572  28.231  10.201   7.717  0.2500  0.0616  0.0099
    1W        W37573  16.258   2.398   2.304  0.1524  0.0886  0.4384
    1W        W37574  11.857  13.083   1.069 -0.0585  0.0609  0.0400
    1W        W37575  13.599  21.290   1.584  0.2572 -0.0766  0.1073
    1W        W37576  20.702  23.378   1.393 -0.0649 -0.1959  0.1198
    1W        W37577  18.929   2.951   6.533  0.0106  0.0414  0.0819
    1W        W37578   8.716   0.939   0.724 -0.3867 -0.0161  0.2989
    1W        W37579  25.255  26.830   1.708  0.0685  0.0224 -0.3703
    1W        W37580  20.931  19.185   7.389  0.3576  0.1078 -0.0614
    1W        W37581   1.887   7.406   0.073 -0.1523  0.2509 -0.5060
    1W        W37582   8.861  29.157   0.051 -0.2313 -0.1557 -0.0031
    1W        W37583   5.617  12.673   7.848 -0.3509  0.0640 -0.2778
    1W        W37584   0.211   5.120   7.686 -0.1662 -0.2253  0.0510
    1W        W37585   3.389   4.268   2.414  0.0116  0.4342 -0.3896
    1W        W37586  26.819   3.127   0.539 -0.1289  0.2480 -0.0986
    1W        W37587  15.312  25.759   9.196 -0.0552  0.1426  0.2703
    1W        W37588  14.504  14.267   9.457 -0.0278  0.1661 -0.0016
    1W        W37589  12.933   0.520   9.419  0.1232 -0.3090 -0.2274
    1W        W37590  22.764   9.340   0.326 -0.3823  0.0428  0.1450
    1W        W37591  14.546  21.476   7.934 -0.1103 -0.2138 -0.0779
    1W        W37592   0.317   4.833   0.842 -0.1723 -0.0256  0.0694
    1W        W37593   4.279  15.297   7.677 -0.2693  0.0798 -0.0027
    1W        W37594   7.636   6.714   7.424  0.1035  0.1019 -0.1720
    1W        W37595  10.458  12.830   0.188  0.2914 -0.3755  0.2145
    1W        W37596   9.537   0.989   8.507  0.2845  0.0664  0.1092
    1W        W37597   4.352  25.847   7.700  0.0127 -0.1024  0.2073
    1W        W37598  16.146  18.200   8.358  0.0225 -0.1198 -0.1394
    1W        W37599   5.197  25.546   1.462  0.1349 -0.1901  0.2823
    1W        W37600   1.368  24.486   0.266  0.2253  0.0764 -0.0930
    1W        W37601   7.767   6.822   1.691 -0.1279  0.2209 -0.0494
    1W        W37602  16.699  15.852   1.716  0.0302  0.0082  0.2505
    1W        W37603  19.110  25.961   6.604 -0.2570  0.0151 -0.0085
    1W        W37604   0.207  18.552   2.772  0.2846  0.3922 -0.0799
    1W        W37605  22.372  12.983   8.440  0.0211  0.2526  0.1732
    1W        W37606  16.478  20.356   7.517 -0.1198  0.2526 -0.0627
    1W        W37607  20.292  17.350   7.089 -0.3927  0.3199  0.1600
    1W        W37608  11.708  24.850   6.896 -0.0748  0.0288 -0.0501
    1W        W37609  25.513  24.503   7.489 -0.0237  0.2541 -0.0429
    1W        W37610  24.693  12.955   6.320 -0.2062 -0.2610 -0.2271
    1W        W37611   3.913   5.911   1.045  0.2791 -0.0452  0.0407
    1W        W37612  23.216  21.604   1.617  0.2643 -0.0850 -0.2887
    1W        W37613  18.135   2.557   7.877 -0.2633  0.0394  0.1738
    1W        W37614   3.735  16.547   1.505  0.0232 -0.1176 -0.2062
    1W        W37615  22.447   6.574   0.097 -0.2346 -0.1379  0.0074
    1W        W37616  14.661  11.427   1.566  0.0833  0.2528  0.0445
    1W        W37617  15.637  19.225   8.783  0.0672  0.0071 -0.2358
    1W        W37618  20.857   2.464   1.399 -0.2249 -0.2717 -0.1732
    1W        W37619  10.996   7.807   1.803  0.0382  0.1775 -0.2268
    1W        W37620  19.784   6.224   0.696 -0.2885 -0.1534  0.2128
    1W        W37621  16.791   7.834   2.082  0.0419  0.0423  0.0429
    1W        W37622  28.556  16.528   1.805 -0.1593 -0.0933  0.3006
    1W        W37623  25.312  21.828   8.634 -0.1145 -0.0346  0.1290
    1W        W37624  28.369   2.298   7.512 -0.1830 -0.1459  0.0531
    1W        W37625   9.225  13.529   9.437  0.0334 -0.0026 -0.3862
    1W        W37626   3.472  16.597   6.966 -0.3349  0.0084  0.2774
    1W        W37627  17.288   4.764   0.716  0.3417  0.1361  0.0044
    1W        W37628   4.844   6.949   2.698  0.0552  0.2804 -0.0392
    1W        W37629   9.140   0.915   7.645  0.0715 -0.3467  0.0616
    1W        W37630   8.344  29.451   7.792 -0.3601 -0.0610  0.2700
    1W        W37631   2.251  18.644   6.965 -0.1262  0.3301  0.1755
    1W        W37632  16.077   9.358   8.782  0.0432  0.1788 -0.1784
    1W        W37633  17.622   8.874   9.416  0.1489 -0.3002 -0.2026
    1W        W37634  11.668   3.388   0.210  0.0821 -0.0242  0.3145
    1W        W37635   9.794   7.414   9.405 -0.0917  0.0614 -0.1406
    1W        W37636  27.577  21.261   7.259 -0.2050 -0.3477 -0.2122
    1W        W37637   4.296  21.724   1.944 -0.0541 -0.0109 -0.0883
    1W        W37638  25.007  28.630   2.094 -0.2385 -0.0312 -0.1594
    1W        W37639  16.897  12.090   8.269  0.0984 -0.0307  0.4192
    1W        W37640  15.091   1.881   2.084  0.2791  0.2108  0.2971
    1W        W37641  17.301   0.343   9.425 -0.2171 -0.0104  0.2555
    1W        W37642  19.897  25.687   3.287 -0.1540 -0.1997  0.2189
    1W        W37643  25.738  20.873   7.595 -0.1686 -0.0139 -0.0552
    1W        W37644  27.575  18.524   0.366  0.2429  0.0407 -0.0043
    1W        W37645  12.492   1.624   3.448 -0.3654  0.0184  0.1484
    1W        W37646  20.976  27.588   1.201 -0.1131 -0.0988 -0.1134
    1W        W37647   9.753   4.915   8.555 -0.0065  0.0697  0.1991
    1W        W37648  22.336   0.561   7.474  0.1479  0.1968  0.2520
    1W        W37649  15.383  20.114   1.245  0.2387 -0.1508 -0.0491
    1W        W37650  22.490   7.415   6.693  0.1296 -0.1636 -0.1712
    1W        W37651  20.500   4.768   7.592  0.1583  0.0979  0.2886
    1W        W37652  27.200  10.283   0.607 -0.2509 -0.1918  0.1985
    1W        W37653  29.426  15.172   1.746 -0.0711 -0.2405 -0.2459
    1W        W37654   6.139  15.131   9.377 -0.0991  0.2224 -0.3610
    1W        W37655   7.884  15.661   7.922 -0.1332  0.0898 -0.1267
    1W        W37656   4.187  26.975   2.488 -0.0319  0.0109  0.0110
    1W        W37657   9.404  20.992   6.574 -0.1856  0.0202 -0.3946
    1W        W37658  19.906  23.982   9.075 -0.0476 -0.1944  0.0157
    1W        W37659  10.347  26.320   1.679 -0.1573 -0.2431  0.0411
    1W        W37660  26.077  11.705   8.354  0.1097 -0.0213  0.0257
    1W        W37661  17.836   4.822   6.826 -0.0194 -0.0115 -0.0122
    1W        W37662  12.088  21.478   8.361 -0.2538  0.3792 -0.2017
    1W        W37663  11.212   9.892   7.438  0.1630  0.0891  0.1520
    1W        W37664  14.240   4.578   0.181  0.2659  0.1027 -0.0928
    1W        W37665   1.286  14.756   1.254  0.0045 -0.0756  0.1823
    1W        W37666  18.498   8.260   7.500  0.0861 -0.0824  0.0202
    1W        W37667  14.586  10.449   1.474  0.3667 -0.0361 -0.0011
    1W        W37668   1.113   0.810   2.127  0.0292  0.2848 -0.0011
    1W        W37669   1.276  20.471   0.525 -0.0357  0.1543 -0.1651
    1W        W37670  28.772   6.757   7.796 -0.0837  0.2351 -0.4580
    1W        W37671  20.563  24.272   7.258 -0.2083 -0.1986 -0.2985
    1W        W37672  11.359   3.763   2.533 -0.2490 -0.0447 -0.1306
    1W        W37673   6.491   6.668   0.397  0.2018 -0.1669 -0.1142
    1W        W37674  27.846  10.919   1.347 -0.1190  0.1437  0.1429
    1W        W37675  19.288  25.785   1.737 -0.0475 -0.0649 -0.0279
    1W        W37676  10.124   4.096   9.435  0.0521  0.1314 -0.0891
    1W        W37677  17.613  28.718   0.453 -0.1516 -0.0351  0.0032
    1W        W37678  16.881  17.350   0.328 -0.1590 -0.0158 -0.0744
    1W        W37679   1.839  20.540   7.378 -0.1939 -0.0645  0.0113
    1W        W37680  28.994  12.143   8.875  0.0594 -0.1299 -0.3456
    1W        W37681  24.683   3.362   1.383  0.0901  0.0004  0.2932
    1W        W37682  27.003  25.895   7.070  0.0623 -0.1711 -0.1194
    1W        W37683   0.666   9.729   7.908 -0.2436  0.0208  0.0966
    1W        W37684   0.199  17.494   8.045  0.0651  0.0863 -0.0455
    1W        W37685   5.362   1.508   2.692 -0.2132 -0.0104  0.1296
    1W        W37686   9.783  29.335   0.944 -0.2630 -0.0416 -0.1939
    1W        W37687  15.103   3.096   2.840  0.2268  0.2367  0.1895
    1W        W37688  23.189  11.274   8.067 -0.1005  0.1911 -0.1360
    1W        W37689   1.082  20.440   8.866 -0.0189  0.5501 -0.2937
    1W        W37690  11.378   8.196   0.179 -0.2282  0.0351 -0.1759
    1W        W37691  25.693  19.793   8.275 -0.1200  0.1216  0.2458
    1W        W37692  21.870  27.659   2.460 -0.0173 -0.1764 -0.0508
    1W        W37693  11.144  17.409   7.949  0.0505  0.3282 -0.0699
    1W        W37694  12.058   6.495   1.648 -0.2082  0.0761 -0.0106
    1W        W37695  27.271   1.519   1.354 -0.1512  0.3765  0.0990
    1W        W37696   2.169  14.934   6.195  0.2649 -0.1840 -0.1296
    1W        W37697  16.657  25.992   2.148 -0.0865  0.1091 -0.3567
    1W        W37698  22.641  12.660   0.282  0.0360 -0.0759  0.0730
    1W        W37699  19.081   0.919   7.505  0.1792 -0.1844  0.5479
    1W        W37700  21.384  28.088   7.550  0.1435 -0.2452 -0.0364
    1W        W37701   7.638  23.487   6.078 -0.1973  0.0749  0.0298
    1W        W37702  23.217   1.530   6.797 -0.0416  0.1362 -0.0318
    1W        W37703  17.117  27.669   3.021 -0.1998 -0.0370  0.0158
    1W        W37704  11.255  29.170   0.908 -0.1518 -0.2727 -0.0297
    1W        W37705   6.782   5.916   1.506 -0.0693  0.1486 -0.2755
    1W        W37706  21.783   1.901   0.172  0.0446 -0.1674  0.2110
    1W        W37707   6.891  25.954   8.167 -0.1330  0.0959  0.1360
    1W        W37708   1.655   5.634   7.161 -0.1388 -0.2687 -0.0425
    1W        W37709  19.334   4.145   8.094  0.0496 -0.0103  0.1350
    1W        W37710   7.431  13.282   2.348 -0.1345  0.0610  0.0166
    1W        W37711   4.117  21.773   1.337 -0.0998 -0.0594  0.1542
    1W        W37712   0.873  20.890   6.821  0.0269 -0.1159  0.3723
    1W        W37713   2.447  24.016   7.254 -0.0576 -0.1998  0.0615
    1W        W37714   7.125  12.807   3.215  0.0029  0.2848  0.0353
    1W        W37715  26.445   2.418   0.695  0.2181  0.1588 -0.1360
    1W        W37716  26.192   7.368   1.282  0.1339  0.3985  0.0334
    1W        W37717  20.555   1.814   1.307 -0.1271 -0.2806  0.2809
    1W        W37718  21.999  18.112   8.019  0.1518 -0.0127  0.0165
    1W        W37719  28.101  15.112   1.120 -0.1513 -0.0426  0.0011
    1W        W37720  23.922  28.809   7.854  0.1011 -0.0837  0.0630
    1W        W37721   2.127  13.639   6.540 -0.0293  0.0565 -0.1508
    1W        W37722  11.378  17.117   1.264 -0.0757 -0.2075  0.0905
    1W        W37723   5.778   9.080   7.245 -0.1839 -0.0604 -0.2395
    1W        W37724  11.090  13.927   2.589  0.5314  0.0254  0.1653
    1W        W37725  13.312  14.153   0.140 -0.1405  0.2396 -0.1029
    1W        W37726  27.613  29.230   1.823  0.1111 -0.0428 -0.0084
    1W        W37727   1.244  11.377   6.338  0.2511  0.2539 -0.0175
    1W        W37728  21.711  23.995   7.569  0.0888  0.0425 -0.0738
    1W        W37729   6.309  28.742   0.753  0.0010  0.1236 -0.3479
    1W        W37730   0.524  22.261   5.971  0.1912 -0.0651  0.0237
    1W        W37731   1.864   9.328   9.344  0.1538 -0.0079 -0.3520
    1W        W37732  14.612  11.533   2.329  0.1797  0.1728  0.0561
    1W        W37733  21.410  10.390   8.058  0.2425  0.0608  0.1251
    1W        W37734   7.834  18.483   1.054  0.4171 -0.0535  0.0899
    1W        W37735   6.098   3.356   7.293 -0.0641 -0.1289 -0.3303
    1W        W37736  24.661  24.624   2.453 -0.1277  0.0299  0.1250
    1W        W37737  13.911  20.590   9.269  0.0654 -0.0362 -0.1207
    1W        W37738   3.450  25.876   6.702  0.1045 -0.2086  0.0545
    1W        W37739  20.502   0.916   1.171  0.3871 -0.0106  0.2492
    1W        W37740   1.264  14.406   0.461  0.5339 -0.0808 -0.0941
    1W        W37741   6.772  10.298   0.905  0.0153 -0.0188  0.3361
    1W        W37742   4.358  12.910   8.418  0.1227 -0.0283 -0.2718
    1W        W37743  28.455  19.666   0.805  0.3752  0.0625  0.1139
    1W        W37744  25.252  26.925   8.272 -0.1190 -0.2339 -0.1213
    1W        W37745  25.589  18.735   9.169 -0.2469 -0.0199 -0.4121
    1W        W37746  14.133   4.052   2.634 -0.2869  0.0491 -0.0334
    1W        W37747  27.184  24.739   8.968  0.0372 -0.2356 -0.2154
    1W        W37748  14.807  24.929   1.586  0.0506 -0.0735 -0.0896
    1W        W37749   1.546  25.254   9.204 -0.2635 -0.1363 -0.3286
    1W        W37750  24.012  11.046   6.012  0.3428 -0.1167 -0.0839
    1W        W37751  20.857  10.642   0.823  0.0158 -0.2730 -0.0791
    1W        W37752  21.748  14.621   7.855 -0.2555 -0.0880 -0.1343
    1W        W37753  25.591   9.532   6.898 -0.2856 -0.0942  0.0351
    1W        W37754   4.150   5.356   0.337  0.0287 -0.0555 -0.1341
    1W        W37755  21.080  14.864   9.038 -0.0666  0.2126  0.0998
    1W        W37756  15.740  21.154   8.190  0.0924  0.1821 -0.2785
    1W        W37757   9.218  29.630   8.459  0.2199  0.0404  0.0425
    1W        W37758  28.598  13.859   7.490 -0.1567  0.0682  0.0067
    1W        W37759   9.333   6.939   9.122 -0.2311  0.1477  0.1074
    1W        W37760   4.609  13.739   2.543 -0.1322  0.1188  0.2110
    1W        W37761   7.656  10.365   6.642  0.2539 -0.0578  0.0889
    1W        W37762   2.070  22.175   7.795  0.4314 -0.1657 -0.0556
    1W        W37763   7.681  18.287   9.253 -0.2998  0.0012  0.1527
    1W        W37764  17.205  17.285   0.778 -0.2842  0.0756  0.1553
    1W        W37765  28.574  10.121   0.492 -0.0345 -0.1681 -0.1567
    1W        W37766  13.604   2.020   7.336 -0.1462 -0.0233 -0.0662
    1W        W37767   5.674  13.627   1.029  0.2249  0.0410 -0.0456
    1W        W37768  22.448  19.772   1.743 -0.1604  0.0284  0.0504
    1W        W37769  18.521  27.385   3.161  0.3129  0.0103  0.0712
    1W        W37770  28.402  20.906   7.055 -0.1636  0.1244 -0.1835
    1W        W37771  28.315  10.879   1.576  0.1426 -0.0115  0.1493
    1W        W37772   8.305  13.427   7.724  0.1884  0.1531  0.2454
    1W        W37773   3.561  22.378   8.476  0.0422 -0.2020  0.2147
    1W        W37774  20.283  25.378   9.386  0.0991  0.2315  0.0374
    1W        W37775  14.925  12.616   7.501 -0.0818 -0.1406 -0.2308
    1W        W37776  11.175  16.037   9.137  0.0490  0.1238 -0.1985
    1W        W37777   3.452  12.584   1.937 -0.1797 -0.0287  0.1373
    1W        W37778   5.110  22.805   1.173  0.0592  0.1116  0.1683
    1W        W37779  29.624  12.471   8.087 -0.4252  0.0918  0.1959
    1W        W37780  19.841   7.193   2.272 -0.1120  0.2801 -0.0132
    1W        W37781   0.962  13.076   6.732  0.0638 -0.4991  0.0516
    1W        W37782   1.514  13.354   5.936 -0.0756 -0.0713 -0.0537
    1W        W37783   0.969  29.009   3.026  0.0190 -0.0179  0.0020
    1W        W37784  12.809   2.110   8.385 -0.0880  0.2076 -0.1083
    1W        W37785  15.736   9.205   9.184  0.0972 -0.1523 -0.0696
    1W        W37786   3.227   3.588   8.263  0.1209  0.1015  0.1981
    1W        W37787   1.796  23.863   2.168 -0.1016  0.0127  0.1787
    1W        W37788  21.934  26.433   9.336 -0.1424 -0.1348 -0.2454
    1W        W37789  22.580  29.408   3.129  0.0099  0.0169 -0.4135
    1W        W37790   0.184  13.212   6.318  0.1335 -0.2287  0.0603
    1W        W37791  24.183  25.432   7.584 -0.0419  0.0965  0.0414
    1W        W37792   3.546  29.178   1.104  0.0977  0.0312 -0.2054
    1W        W37793  11.362  18.307   8.322 -0.3695 -0.1758  0.0962
    1W        W37794  28.517  18.356   1.439 -0.0663 -0.2058  0.1451
    1W        W37795   6.892  12.672   1.437 -0.2614 -0.0608 -0.1392
    1W        W37796  22.691  13.110   9.357 -0.3507  0.0819  0.2629
    1W        W37797  19.150  24.438   0.256 -0.1625  0.2174 -0.1591
    1W        W37798   1.323  24.605   9.029  0.1167  0.0240 -0.0502
    1W        W37799  16.106  24.330   8.225 -0.4085 -0.0504 -0.0910
    1W        W37800  21.190  13.791   1.822 -0.0417 -0.0287  0.1276
    1W        W37801  22.840   9.181   5.957 -0.0161 -0.1805 -0.1159
    1W        W37802  18.739   0.106   1.934  0.3189 -0.3879  0.1721
    1W        W37803  17.480  23.022   9.203 -0.0695 -0.1203  0.1261
    1W        W37804  27.024   3.012   1.158  0.2497 -0.0200  0.1253
    1W        W37805  17.008  23.768   2.132 -0.1310  0.0682 -0.0115
    1W        W37806  24.373  10.405   7.204  0.0146  0.2002  0.0404
    1W        W37807  23.053  13.910   1.827  0.1053  0.0894 -0.1255
    1W        W37808  28.160   2.689   7.780  0.0072  0.0085 -0.0405
    1W        W37809  24.505   9.933   7.042 -0.1621 -0.1966 -0.2240
    1W        W37810  13.775   4.580   8.906 -0.0527  0.0820 -0.2366
    1W        W37811  28.383  27.792   1.934 -0.3165  0.3931 -0.3050
    1W        W37812   3.100  19.246   9.319  0.0360 -0.0966  0.0542
    1W        W37813   3.741   1.696   1.563  0.0379  0.1225 -0.0225
    1W        W37814  25.188   9.553   7.201  0.0544  0.2070  0.2358
    1W        W37815  12.944  24.085   8.737  0.2249  0.1761  0.0731
    1W        W37816  14.285  13.787   1.861 -0.3613 -0.1128  0.1888
    1W        W37817  23.277  22.625   6.182 -0.1123 -0.2743 -0.2544
    1W        W37818   3.132   9.437   0.274 -0.1189  0.2113  0.0735
    1W        W37819  21.984  10.323   9.209  0.1146 -0.1845  0.1618
    1W        W37820  15.771  23.579   7.045  0.1219  0.1242  0.0041
    1W        W37821  21.346  19.918   0.338  0.0579 -0.0683 -0.0662
    1W        W37822  10.576  11.994   8.762  0.2370 -0.1813 -0.2444
    1W        W37823  18.115  24.607   8.573  0.2219 -0.1477 -0.0152
    1W        W37824  26.338  24.007   6.563  0.0550  0.0236 -0.0338
    1W        W37825   7.697  16.948   1.961 -0.1484  0.3285 -0.0245
    1W        W37826   2.841  17.708   0.011  0.2785  0.0430  0.0780
    1W        W37827  14.475  23.898   8.275 -0.0789 -0.1173  0.1485
    1W        W37828  21.535   3.157   3.360 -0.0560 -0.3493 -0.0205
    1W        W37829   9.578  21.448   6.811 -0.3643  0.1478 -0.1303
    1W        W37830   7.577  10.635   7.461  0.0113  0.0369 -0.0721
    1W        W37831   7.955   9.825   2.266 -0.1408  0.1282  0.1671
    1W        W37832  23.948  23.902   0.085 -0.3359  0.2472 -0.1330
    1W        W37833  18.242   5.685   1.767 -0.1216 -0.1174  0.2495
    1W        W37834   4.798  13.365   9.265 -0.1507  0.3386  0.1848
    1W        W37835  14.184  26.785   0.703  0.1397 -0.2116 -0.2992
    1W        W37836  22.951  11.338   8.491 -0.1148 -0.1382  0.1543
    1W        W37837  26.900  20.438   9.067 -0.0244  0.1255 -0.2131
    1W        W37838  10.069  13.469   7.516 -0.1851 -0.2163 -0.3697
    1W        W37839   5.507   9.841   2.357  0.2738  0.0235 -0.0594
    1W        W37840  16.437   0.131   7.776 -0.0131  0.0736 -0.2009
    1W        W37841  19.065   8.242   1.062 -0.1274 -0.5029  0.2255
    1W        W37842  14.578  16.832   8.995  0.3111 -0.0721  0.0792
    1W        W37843   9.060  25.736   1.642 -0.3440  0.0077 -0.0180
    1W        W37844  19.499  26.942   0.708 -0.0497 -0.0549 -0.0088
    1W        W37845   1.251  20.146   1.694 -0.1424  0.0642 -0.3687
    1W        W37846  12.327   4.238   8.777 -0.2953  0.0110  0.1254
    1W        W37847   4.101  11.949   6.962 -0.1411 -0.0674  0.1477
    1W        W37848  18.169  20.709   0.134 -0.0437  0.0897  0.2694
    1W        W37849   4.116   9.625   2.125  0.2230  0.1271  0.2380
    1W        W37850  25.260  25.681   6.874 -0.0266 -0.0621 -0.1760
    1W        W37851  24.639   8.868   7.487 -0.0075  0.0421  0.0899
    1W        W37852  22.638  16.052   6.125  0.0568 -0.2674 -0.0423
    1W        W37853  20.059  10.467   7.242 -0.0182 -0.1417 -0.0633
    1W        W37854   9.348  23.246   0.673 -0.2534  0.0518 -0.1551
    1W        W37855  21.008   7.834   0.576 -0.0497  0.0211  0.1037
    1W        W37856  26.761   6.840   3.166  0.0092 -0.1420  0.0252
    1W        W37857  12.421   5.250   9.401  0.2708  0.2689 -0.2937
    1W        W37858   0.523  18.543   0.617  0.1230 -0.0621  0.0203
    1W        W37859  13.026  17.114   8.116 -0.0700  0.2089  0.1050
    1W        W37860   4.335  28.743   8.099 -0.0343 -0.0099 -0.3086
    1W        W37861  27.257  11.402   1.700  0.2122 -0.2099  0.0597
    1W        W37862   6.271   6.984   7.312 -0.1925 -0.1498 -0.0981
    1W        W37863  16.488  28.274   9.177 -0.0406  0.0955 -0.2299
    1W        W37864  15.112   8.213   7.793  0.0870  0.3393  0.0955
    1W        W37865  10.554  25.983   0.734 -0.1770 -0.1289  0.3407
    1W        W37866  26.025  21.251   7.308 -0.0032  0.1308  0.2046
    1W        W37867  27.354   3.593   1.715  0.1529  0.0377  0.3911
    1W        W37868  28.994  27.423   7.914  0.0285  0.0306  0.1264
    1W        W37869  24.260  23.962   2.302  0.0137  0.0336  0.2470
    1W        W37870   8.153  22.992   0.299  0.0591 -0.3544 -0.3663
    1W        W37871  13.125  17.287   8.595  0.0471  0.1996 -0.1254
    1W        W37872  22.727  26.620   7.552 -0.1913  0.1758  0.0441
    1W        W37873  25.032  16.966   8.925 -0.3025  0.1243 -0.2017
    1W        W37874  21.115  24.026   2.930 -0.1588  0.1319  0.1383
    1W        W37875  23.423   9.301   1.769 -0.0465  0.0731  0.1478
    1W        W37876   1.220  27.068   2.104 -0.2916  0.1768  0.3034
    1W        W37877   5.308  19.707   1.395  0.0372 -0.5142  0.2295
    1W        W37878   0.222  10.766   8.765 -0.4340  0.1243 -0.1091
    1W        W37879   2.926   7.841   1.064 -0.1481 -0.0909  0.0013
    1W        W37880  26.081  18.032   1.983 -0.2719 -0.0230 -0.0060
    1W        W37881  12.169  13.899   1.200 -0.4179 -0.1934 -0.1174
    1W        W37882  19.104  27.892   1.377 -0.1583  0.4106  0.6076
    1W        W37883   6.288   3.798   8.044  0.2367 -0.0558  0.2961
    1W        W37884  12.151   6.526   3.457  0.1897  0.0083  0.2014
    1W        W37885  29.285  27.390   8.706  0.1660 -0.2642  0.0966
    1W        W37886   3.673  17.727   0.669  0.1024 -0.0206 -0.1026
    1W        W37887  20.718  26.037   7.166  0.1087 -0.3974  0.1509
    1W        W37888   4.468   8.328   1.719  0.0297 -0.0322 -0.0931
    1W        W37889  13.934  22.589   8.720 -0.0264 -0.0439 -0.2455
    1W        W37890  12.398  18.234   9.251 -0.0026 -0.0265 -0.0405
    1W        W37891  27.998  18.814   8.483  0.0373  0.0044  0.0888
    1W        W37892  28.138   8.406   1.659  0.1019  0.1195  0.0476
    1W        W37893  26.617   8.830   0.049 -0.2671 -0.5877  0.1760
    1W        W37894   0.039   5.875   2.578 -0.0344  0.0243 -0.1485
    1W        W37895  19.700   5.195   3.064  0.0880 -0.1202 -0.1995
    1W        W37896   7.571   8.168   7.362  0.2362  0.2016 -0.0335
    1W        W37897  13.359   8.209   8.481  0.1124  0.2438 -0.2088
    1W        W37898   4.211  24.195   5.574  0.0005 -0.0286  0.0748
    1W        W37899  20.787  26.410   2.082 -0.1224 -0.1939 -0.0277
    1W        W37900  23.697   1.544   1.257  0.2858 -0.2097  0.1744
    1W        W37901   2.061  15.518   8.721 -0.0702  0.1477 -0.2694
    1W        W37902  22.323  17.816   6.823  0.1257 -0.1677 -0.0558
    1W        W37903  27.750  26.276   7.748  0.0578  0.2207 -0.1701
    1W        W37904  10.849   4.629   2.422 -0.0555  0.2386 -0.4058
    1W        W37905  14.576  20.669   1.961  0.1006 -0.1390 -0.1776
    1W        W37906  11.446   6.934   7.263  0.2771  0.2644  0.0504
    1W        W37907  20.903   2.518   8.303 -0.3232  0.1064 -0.0703
    1W        W37908   1.556   1.905   2.569  0.0912  0.1113  0.4067
    1W        W37909   5.106   6.849   8.722 -0.0877  0.2231 -0.0890
    1W        W37910  13.420   2.088   3.196 -0.2072  0.1474 -0.0601
    1W        W37911  26.111  23.583   8.576 -0.0876  0.3036 -0.2865
    1W        W37912  25.111   7.056   8.571 -0.0794 -0.0437  0.0686
    1W        W37913  21.356  24.432   8.300  0.0555 -0.0789 -0.0286
    1W        W37914  11.932  21.537   7.521  0.1933 -0.0534 -0.2795
    1W        W37915  24.636   7.693   7.614  0.2696 -0.2959 -0.1599
    1W        W37916  27.048   9.270   2.772 -0.3446  0.1616 -0.3785
    1W        W37917   6.770   7.539   0.390 -0.2141 -0.1850 -0.0810
    1W        W37918   1.531  11.343   1.980  0.0608 -0.0940  0.0325
    1W        W37919  22.329  18.871   8.260 -0.1403  0.1000  0.1107
    1W        W37920  17.866  10.596   8.941 -0.0548  0.1823  0.1587
    1W        W37921  24.278   7.103   1.499 -0.1500 -0.0680 -0.2238
    1W        W37922   5.345  16.300   1.593 -0.2501  0.1224 -0.0292
    1W        W37923  16.857  13.822   7.853 -0.1276 -0.1141  0.4302
    1W        W37924  17.827   5.348   6.825 -0.1151 -0.2454  0.2114
    1W        W37925  25.555   2.210   0.496 -0.5047 -0.2107 -0.0386
    1W        W37926  29.539   8.113   0.525 -0.4199  0.2182 -0.0819
    1W        W37927  23.353   8.595   7.552  0.2494  0.0026  0.1059
    1W        W37928   6.747  18.649   5.920  0.1721 -0.0223  0.0563
    1W        W37929   2.295   1.477   9.324 -0.2164  0.3405 -0.0452
    1W        W37930   7.401   8.726   2.009  0.1298 -0.0006 -0.2554
    1W        W37931   6.431  19.908   1.424 -0.0456 -0.1242 -0.1458
    1W        W37932   1.765  11.480   1.488  0.1636 -0.2993 -0.1975
    1W        W37933  25.696  24.882   7.171  0.0202 -0.2523 -0.1297
    1W        W37934  15.157  12.276   7.873 -0.0763 -0.2946  0.0836
    1W        W37935   5.189  26.642   9.226  0.3355  0.2916 -0.1054
    1W        W37936  26.158   2.947   7.061  0.0625  0.1217  0.0723
    1W        W37937   5.191  20.367   6.081  0.0276  0.1023  0.0534
    1W        W37938  28.141  21.170   7.368  0.1086  0.2006  0.1326
    1W        W37939   6.925   7.813   8.919 -0.0627 -0.0961  0.0621
    1W        W37940  27.633   4.341   0.193  0.2998 -0.0672  0.0984
    1W        W37941  19.494   6.499   1.087 -0.5084  0.1907  0.0087
    1W        W37942  23.769   4.056   6.628 -0.0322  0.0234  0.0194
    1W        W37943  12.419   7.083   7.479  0.0570  0.1183 -0.0022
    1W        W37944   8.435  18.744   8.577 -0.1537  0.0746 -0.3855
    1W        W37945  13.153  21.357   8.651  0.1436 -0.1159 -0.2679
    1W        W37946   2.040  15.241   9.130 -0.0318  0.1756  0.1931
    1W        W37947  18.154   6.339   0.798  0.0647 -0.3156 -0.2776
    1W        W37948  27.010   5.511   2.076  0.0755  0.3527  0.2360
    1W        W37949  26.973   1.978   2.004  0.1571 -0.0710 -0.0396
    1W        W37950  29.239   9.514   9.044 -0.0769 -0.1156 -0.1562
    1W        W37951  11.796  10.627   7.636 -0.0339  0.1690 -0.2314
    1W        W37952  16.115  25.963   8.271 -0.2114  0.4017 -0.2102
    1W        W37953  19.075  11.123   0.805  0.1556  0.0321  0.3107
    1W        W37954   3.694  18.553   1.269  0.2406 -0.2114 -0.0660
    1W        W37955  21.253   5.550   7.316 -0.1314 -0.0455  0.0955
    1W        W37956   1.275  19.652   7.900  0.0980 -0.0275  0.0966
    1W        W37957   4.933   3.539   2.016  0.2018  0.0150  0.1066
    1W        W37958  24.698  27.168   7.020 -0.2001  0.2694  0.0369
    1W        W37959  24.288   0.341   3.287  0.1919  0.1190 -0.2806
    1W        W37960  29.635  28.380   3.228  0.2681 -0.0657 -0.1924
    1W        W37961  28.853  24.628   1.260 -0.3486 -0.2394 -0.0351
    1W        W37962  13.776  14.554   6.692  0.1747  0.0157 -0.2650
    1W        W37963  23.991  13.925   0.971 -0.0190  0.1771  0.0417
    1W        W37964  13.210  28.865   2.634  0.1869  0.1294 -0.0439
    1W        W37965  22.508  27.829   7.636  0.1203  0.0539 -0.1076
    1W        W37966   7.708  18.357   6.948  0.1223  0.0962 -0.2634
    1W        W37967  12.332  21.616   6.361  0.5189 -0.1866  0.0693
    1W        W37968   3.597   4.634   9.338 -0.3256  0.0112  0.2616
    1W        W37969  27.666  14.563   7.693  0.3250  0.0756  0.1446
    1W        W37970  11.917  14.739   0.175  0.2096  0.2287  0.2523
    1W        W37971   6.198  23.681   1.422  0.0534  0.1583  0.0723
    1W        W37972   3.527  15.907   0.970 -0.2424  0.0590  0.0022
    1W        W37973  15.586  22.475   6.806 -0.1001  0.0266 -0.1052
    1W        W37974  10.650  13.008   6.908  0.5105  0.0057 -0.0580
    1W        W37975   8.400  10.114   1.158 -0.0732 -0.2697 -0.2686
    1W        W37976  10.732  16.230   1.960 -0.0179 -0.1125  0.3306
    1W        W37977  28.554  15.857   6.987 -0.0860  0.0620  0.0345
    1W        W37978  12.726  14.544   1.272 -0.0277 -0.0743 -0.1097
    1W        W37979   2.433   5.072   2.809  0.0479 -0.0621 -0.0228
    1W        W37980   5.894  20.589   7.477 -0.1351  0.0337 -0.2570
    1W        W37981   8.042  29.022   0.488 -0.3296  0.0715 -0.4664
    1W        W37982  29.736   9.624   2.149  0.2662 -0.1666  0.0272
    1W        W37983  26.167  27.280   2.706 -0.1181  0.1888 -0.5462
    1W        W37984  21.422  13.679   2.224 -0.1305  0.1270  0.0514
    1W        W37985  20.912  26.816   8.070  0.1098  0.3001  0.0798
    1W        W37986   1.818   3.172   0.697 -0.4245 -0.1751 -0.0969
    1W        W37987  28.207   6.886   3.133 -0.0381  0.2660 -0.4101
    1W        W37988  25.082  13.252   0.530  0.2941  0.1230  0.0740
    1W        W37989  25.423  20.117   0.349  0.2066 -0.0057  0.0725
    1W        W37990  23.100   3.431   2.541 -0.1431  0.1957  0.0683
    1W        W37991  21.674   1.844   0.700 -0.0253 -0.2316  0.1735
    1W        W37992  22.861   7.522   8.208 -0.0097  0.0393 -0.1292
    1W        W37993  20.594   8.400   2.002 -0.0784  0.2220 -0.0710
    1W        W37994  15.289  14.236   9.083  0.4301 -0.4987 -0.1008
    1W        W37995  17.583  19.540   3.023 -0.1836 -0.1240  0.1939
    1W        W37996   0.561  11.371   0.533  0.1088  0.0533  0.0694
    1W        W37997  19.291   6.987   0.848 -0.4040 -0.2014  0.1441
    1W        W37998  25.036  28.495   7.298  0.1507 -0.0370 -0.1638
    1W        W37999   0.541  24.813   6.531  0.0809 -0.0633 -0.6356
    1W        W38000  28.370  19.592   6.854  0.2080  0.2410 -0.3863
    1W        W38001  16.933   5.899   8.192 -0.0054  0.0544  0.0070
    1W        W38002  10.817   4.410   7.497 -0.3076  0.0973  0.2449
    1W        W38003  29.030   9.026   1.469 -0.2359  0.1547  0.0154
    1W        W38004  24.720   3.370   2.493  0.1596 -0.1349  0.0671
    1W        W38005  13.526  23.543   8.951  0.2745 -0.2252  0.0044
    1W        W38006   7.370   6.169   2.026  0.2701  0.0702 -0.0965
    1W        W38007   5.778  11.780   7.429  0.0131 -0.0768  0.1498
    1W        W38008  27.312  17.704   1.141 -0.2261 -0.0861  0.4110
    1W        W38009  26.804  20.993   6.782 -0.0144 -0.0044 -0.0302
    1W        W38010  29.276  13.147   0.426 -0.2257 -0.0469 -0.4169
    1W        W38011  15.079  11.692   1.599  0.0543  0.0773  0.2194
    1W        W38012   6.761   9.111   7.571 -0.1930  0.0399 -0.0175
    1W        W38013  28.293   4.912   0.488 -0.0342  0.2737  0.0303
    1W        W38014  14.950  24.756   2.424 -0.1301 -0.1058  0.3794
    1W        W38015  15.922  27.218   7.234  0.1098  0.3032 -0.2519
    1W        W38016  18.159  19.392   8.851  0.0413  0.0306 -0.2263
    1W        W38017  10.257  12.094   2.749 -0.0878 -0.0183  0.0417
    1W        W38018   5.227  10.292   8.675 -0.0282  0.1423  0.2390
    1W        W38019  24.239   7.994   0.546  0.0465 -0.0630 -0.0658
    1W        W38020  12.350  23.323   1.290 -0.0512 -0.1792  0.0475
    1W        W38021  26.880   7.150   5.583  0.0548  0.1466 -0.0534
    1W        W38022   6.175   2.859   7.628  0.0526  0.3060  0.0531
    1W        W38023  10.728  15.064   2.363 -0.1609  0.2304  0.1888
    1W        W38024  15.189  11.202   1.368  0.0996 -0.1136 -0.0432
    1W        W38025  17.857  24.605   2.408 -0.2470  0.1262 -0.0335
    1W        W38026   5.490  13.946   1.488  0.0135 -0.1303  0.2058
    1W        W38027  10.653  21.232   1.855  0.0140  0.3460 -0.0279
    1W        W38028   8.347  28.629   7.433 -0.0630  0.0880  0.0913
    1W        W38029  16.417  17.844   8.596  0.1640  0.0603 -0.2037
    1W        W38030   5.273  14.223   0.049  0.0830  0.2059 -0.2618
    1W        W38031  28.063  16.112   8.202  0.0040 -0.2514 -0.2429
    1W        W38032   1.218  23.466   6.965  0.3669 -0.2439  0.1435
    1W        W38033  27.175  20.931   1.445 -0.1626 -0.0391 -0.2400
    1W        W38034   0.343  10.145   8.087 -0.0519  0.0447 -0.0746
    1W        W38035  20.438   2.043   7.986  0.0298  0.3905  0.0432
    1W        W38036  17.343  13.979   9.143 -0.2158 -0.0863 -0.1437
    1W        W38037   7.791  25.631   2.331 -0.1655 -0.1411  0.2231
    1W        W38038   4.942  25.994   7.117 -0.1673  0.0164 -0.0630
    1W        W38039  16.291  24.772   8.956  0.0070  0.1354 -0.0164
    1W        W38040  14.452   8.767   0.083 -0.2158  0.3841 -0.0660
    1W        W38041  27.749   6.862   0.271  0.0201 -0.0175  0.0653
    1W        W38042  27.175   4.926   3.066  0.0800 -0.2091 -0.0114
    1W        W38043  14.717  22.656   2.219 -0.1380 -0.0095  0.1227
    1W        W38044  19.994  20.913   8.685  0.0195  0.0378  0.0578
    1W        W38045  25.630   7.856   8.527 -0.0396  0.2162  0.1843
    1W        W38046  22.489  22.158   0.071  0.1237 -0.1370 -0.3721
    1W        W38047  25.525   8.388   1.965  0.0108 -0.3414 -0.3329
    1W        W38048  13.857  19.116   6.742  0.0333  0.0596  0.1596
    1W        W38049  12.493   6.332   1.974  0.6654  0.1353  0.0155
    1W        W38050  18.644  11.119   2.148  0.1115  0.0163  0.2451
    1W        W38051  17.029  16.061   7.425 -0.1473  0.0912 -0.1180
    1W        W38052  16.927  27.998   9.039  0.1159  0.0513 -0.1651
    1W        W38053  17.008  14.143   7.541  0.2425 -0.1352  0.0366
    1W        W38054  24.755  10.641   6.447  0.1325 -0.0939  0.2498
    1W        W38055  20.687  12.044   9.187 -0.2430 -0.0726  0.0746
    1W        W38056   3.231  21.870   6.206 -0.3512 -0.1731  0.1680
    1W        W38057  27.531  26.058   7.167  0.1239 -0.0521  0.0294
    1W        W38058  15.164   2.284   8.160  0.2253  0.0352 -0.3248
    1W        W38059   8.303  25.324   7.846 -0.0151 -0.1576 -0.2135
    1W        W38060  19.517   3.661   6.364  0.1366  0.1935  0.3573
    1W        W38061   0.854  25.044   6.886 -0.0396 -0.1167 -0.1040
    1W        W38062  27.473  19.635   6.819  0.1008 -0.0884  0.1402
    1W        W38063  28.154   8.591   8.079 -0.1795 -0.1426  0.1624
    1W        W38064  20.258  12.656   0.016 -0.1022 -0.2823  0.2796
    1W        W38065   1.020  17.238   0.887  0.2359 -0.1783  0.0640
    1W        W38066   7.120  27.612   1.961  0.2058  0.1863  0.0672
    1W        W38067  13.205   2.715   7.435  0.2225 -0.0303 -0.1499
    1W        W38068  25.500  20.607   2.584  0.1122  0.1188  0.1901
    1W        W38069   1.596  14.574   1.694  0.0730  0.2288  0.1254
    1W        W38070  15.929   3.136   7.665  0.0724 -0.0274 -0.0153
    1W        W38071   3.097  14.858   1.982  0.2323 -0.0803 -0.0235
    1W        W38072   5.206  20.639   8.307 -0.3434  0.0614 -0.0442
    1W        W38073   6.016  26.703   1.180  0.1231  0.1027 -0.2798
    1W        W38074   2.762  25.212   7.104 -0.0437 -0.1366  0.0058
    1W        W38075   1.338  15.284   8.382 -0.2411 -0.0959 -0.2357
    1W        W38076  18.324  21.601   7.935  0.1885 -0.0995 -0.2348
    1W        W38077  28.238  23.696   8.680  0.1243  0.2712  0.2420
    1W        W38078  13.536   5.116   0.567 -0.0245  0.0522  0.2198
    1W        W38079   2.876  17.260   0.666  0.0605 -0.1614 -0.2238
    1W        W38080   4.928  19.183   6.989 -0.1272 -0.1492 -0.1076
    1W        W38081   3.183   1.125   1.237  0.1096  0.0778  0.1922
    1W        W38082  15.437  21.481   0.108  0.4234 -0.1172  0.3113
    1W        W38083   8.938  10.469   9.005  0.2032 -0.3086  0.2039
    1W        W38084  25.016  27.109   9.314 -0.0297 -0.0369 -0.0809
    1W        W38085  17.526  22.540   9.232  0.0710 -0.0917 -0.0433
    1W        W38086  20.146  25.422   1.660 -0.0700 -0.0630 -0.0386
    1W        W38087  22.486   9.068   7.092 -0.0073  0.0998  0.3208
    1W        W38088   1.686  12.606   2.494  0.0166 -0.1241 -0.0668
    1W        W38089   6.261  22.683   1.941  0.0153  0.0119  0.1780
    1W        W38090  29.762   0.258   1.895 -0.1459  0.1067 -0.0022
    1W        W38091   3.256   6.261   0.429 -0.0025 -0.1490 -0.0100
    1W        W38092   1.580  17.154   9.404  0.3182  0.0588  0.3071
    1W        W38093  20.788  12.528   9.448 -0.1245 -0.2557 -0.0237
    1W        W38094  24.732   4.163   7.713 -0.0301  0.1066 -0.3714
    1W        W38095   7.927   1.603   8.648  0.2967 -0.0109 -0.0364
    1W        W38096  27.599  13.285   0.261 -0.0119 -0.0202 -0.2575
    1W        W38097   8.297   1.962   0.499  0.1485 -0.3551  0.0668
    1W        W38098   3.421  25.564   0.332  0.0959  0.0389  0.0883
    1W        W38099  13.081   8.660   1.459  0.0189  0.0283  0.0759
    1W        W38100  16.740   6.245   6.809  0.0163 -0.0987 -0.0880
    1W        W38101  14.010   7.308   1.520 -0.2981  0.1630 -0.2177
    1W        W38102   7.990   8.252   1.247 -0.0291 -0.1705 -0.2930
    1W        W38103  23.664   3.423   8.964 -0.0159 -0.1467  0.1946
    1W        W38104  22.583   5.091   2.286 -0.0022 -0.2009 -0.1936
    1W        W38105  24.445  18.519   1.001  0.1439  0.2940 -0.0726
    1W        W38106  29.643   7.036   0.479 -0.4322 -0.0586  0.1875
    1W        W38107  16.332  26.429   7.769 -0.1462 -0.0852 -0.0704
    1W        W38108   5.327  27.899   0.827 -0.0963 -0.3502 -0.1452
    1W        W38109  16.004  19.777   9.300 -0.1256  0.2295  0.1596
    1W        W38110  21.840   9.066   0.021  0.0032  0.2803 -0.0278
    1W        W38111  18.213  24.937   2.577 -0.1686  0.0074  0.3459
    1W        W38112   0.307  11.321   2.095  0.0923  0.1132 -0.0273
    1W        W38113   2.357  18.940   9.059  0.3018 -0.2143  0.1455
    1W        W38114   9.078  18.200   9.186 -0.0387  0.1512  0.4953
    1W        W38115  16.720  29.617   8.860  0.0904  0.1262 -0.1675
    1W        W38116  24.307  14.317   8.693  0.0292  0.2488  0.2356
    1W        W38117   0.875  10.713   0.992 -0.1312 -0.0644  0.0404
    1W        W38118   6.153  28.698   1.247  0.3194 -0.1295 -0.4158
    1W        W38119   0.495  14.109   7.662  0.0080  0.2746  0.1843
    1W        W38120  18.984   4.091   0.521  0.1284  0.4510 -0.1201
    1W        W38121  19.258  11.038   6.224  0.0197 -0.1892  0.2336
    1W        W38122  13.381  25.612   6.877 -0.1081 -0.2470  0.0830
    1W        W38123   8.600   3.966   7.661  0.1160 -0.1598  0.1752
    1W        W38124   8.969   8.607   0.147  0.0528  0.0753 -0.1391
    1W        W38125  15.736  27.172   1.636 -0.1834  0.0507 -0.1373
    1W        W38126  15.178  27.370   2.098  0.1421  0.0845  0.2433
    1W        W38127   8.614  23.301   0.234 -0.0197  0.0542  0.1755
    1W        W38128  17.961  27.047   2.995  0.3783  0.0379 -0.0269
    1W        W38129  27.068  18.509   5.941  0.1439  0.0847 -0.0116
    1W        W38130  11.389  24.902   0.047  0.1782 -0.0473  0.0588
    1W        W38131  11.395   3.065   7.900  0.1196 -0.1861 -0.1066
    1W        W38132  17.207   5.335   8.034  0.0318  0.0520 -0.0052
    1W        W38133  13.822  21.362   6.393 -0.2025  0.1405 -0.0391
    1W        W38134  20.527  19.185   8.255  0.0707  0.1077 -0.1243
    1W        W38135  23.363  21.883   8.175 -0.0651  0.0069  0.4245
    1W        W38136   4.866  16.115   7.022  0.1583  0.0485 -0.0379
    1W        W38137  20.571  28.556   0.993  0.1974 -0.0103 -0.1953
    1W        W38138  15.443  23.461   0.905 -0.0112  0.0104  0.2126
    1W        W38139  27.920  21.360   9.453  0.1842  0.1336  0.1693
    1W        W38140  21.622  11.137   5.941 -0.1063 -0.2114 -0.0373
    1W        W38141  11.527  11.825   8.819 -0.0427 -0.1815  0.0247
    1W        W38142   9.156   3.266   1.012 -0.0661  0.1833 -0.1010
    1W        W38143   4.406   5.590   1.182 -0.0866  0.0635  0.0681
    1W        W38144   4.867  14.221   8.303 -0.0849  0.1159  0.0734
    1W        W38145  20.884  29.577   2.312 -0.2680  0.1111  0.1089
    1W        W38146   3.119  15.375   0.511  0.3071 -0.0380  0.3213
    1W        W38147   9.450   4.185   8.136 -0.1120 -0.3509 -0.1555
    1W        W38148   1.497  16.194   7.343 -0.0595 -0.4238 -0.2102
    1W        W38149   0.897  15.867   5.774  0.1208 -0.1198  0.2056
    1W        W38150   3.920  28.956   2.420  0.1501 -0.3702 -0.3183
    1W        W38151  19.267   2.125   0.108 -0.2843  0.1829 -0.0019
    1W        W38152  10.130  14.846   1.579  0.1313 -0.2407  0.1986
    1W        W38153  11.872   3.225   7.708  0.0707  0.1412  0.0507
    1W        W38154  16.242   4.476   7.780 -0.2676 -0.2614 -0.1863
    1W        W38155   3.172   4.033   3.711 -0.0293 -0.1341  0.1529
    1W        W38156  24.971  25.790   2.323 -0.0057 -0.0579  0.1636
    1W        W38157   7.701   1.734   9.424 -0.0707 -0.1138  0.0114
    1W        W38158  29.568  14.230   5.362  0.0674  0.1624  0.2477
    1W        W38159  14.016   7.237   1.043  0.0620  0.1504 -0.1198
    1W        W38160   5.519  24.305   8.486  0.1061 -0.2153  0.0284
    1W        W38161  26.851  25.677   6.014  0.5350  0.0540 -0.1739
    1W        W38162  14.513  27.941   8.745  0.0845  0.1414  0.0942
    1W        W38163  14.381  27.280   0.706  0.0188  0.0350  0.4034
    1W        W38164   4.314   8.537   2.922  0.1317  0.0184 -0.2437
    1W        W38165  15.678  15.045   1.183 -0.0023 -0.0777 -0.0757
    1W        W38166   0.178  28.719   3.291  0.0362  0.0140  0.0159
    1W        W38167  19.200  17.972   8.501 -0.0151 -0.0938  0.1713
    1W        W38168  28.628  12.636   2.333  0.1374  0.0466 -0.0481
    1W        W38169  25.975  29.102   2.121 -0.3483 -0.1701 -0.1786
    1W        W38170  23.877   5.968   7.544 -0.0390  0.1084  0.2059
    1W        W38171  24.403  23.992   8.586 -0.0549 -0.2931  0.1947
    1W        W38172   5.539  11.090   0.660 -0.2256 -0.1473  0.0011
    1W        W38173   0.438  21.942   6.508  0.1214  0.1576 -0.0130
    1W        W38174   1.884   8.850   9.161 -0.2042  0.0090  0.0608
    1W        W38175   7.757  28.395   7.151 -0.1748 -0.1622 -0.4476
    1W        W38176  24.088  21.224   0.546  0.1385  0.0168 -0.0291
    1W        W38177   6.245  12.977   2.735  0.0947  0.0701  0.1335
    1W        W38178  21.600  27.352   8.194 -0.0340  0.2855 -0.1784
    1W        W38179  10.535  24.693   7.757  0.0362  0.2583  0.4674
    1W        W38180   7.140  25.110   1.633  0.2037  0.0293 -0.0126
    1W        W38181   7.242   1.856   2.830 -0.1209 -0.1305 -0.0533
    1W        W38182  10.381  11.002   1.869 -0.4456 -0.1476 -0.1734
    1W        W38183  16.691   3.141   1.205  0.0307 -0.1768 -0.0888
    1W        W38184   9.587  10.786   0.731 -0.0678  0.0303 -0.2644
    1W        W38185  10.527  27.633   1.191 -0.0234 -0.0387  0.2436
    1W        W38186  10.489  27.222   1.527  0.1199  0.0876 -0.0663
    1W        W38187  21.083  29.816   8.241 -0.0926 -0.0325  0.0137
    1W        W38188  16.899  19.610   8.075 -0.0892 -0.2293  0.1312
    1W        W38189   8.109   4.883   2.392 -0.1628  0.0237 -0.3233
    1W        W38190  17.012  15.061   7.792 -0.0571 -0.1805  0.1060
    1W        W38191  16.773  20.113   8.417 -0.0084 -0.2780 -0.1776
    1W        W38192   7.205  17.039   2.211 -0.1200  0.3838 -0.0914
    1W        W38193  29.203   6.581   7.742 -0.1172  0.0303  0.2782
    1W        W38194   3.709  25.926   8.345  0.0078 -0.0207 -0.2437
    1W        W38195   3.220   4.625   8.967  0.0403  0.2418 -0.0349
    1W        W38196  22.421  10.828   7.969  0.1971  0.0359  0.0658
    1W        W38197  11.894   8.614   2.564 -0.0520  0.1568  0.1523
    1W        W38198   3.562  10.947   1.794 -0.1467 -0.1266  0.0125
    1W        W38199  20.932  24.386   8.569  0.0595 -0.3549  0.0151
    1W        W38200   3.835  21.922   8.464 -0.0291 -0.0548 -0.0392
    1W        W38201   0.388   3.260   2.334  0.1107 -0.1237  0.1547
    1W        W38202  22.132  20.791   7.492  0.5531 -0.2371  0.0828
    1W        W38203  17.340  19.062   7.186  0.2818 -0.1007  0.0946
    1W        W38204  11.244  14.898   7.768  0.0814 -0.2354  0.1713
    1W        W38205   0.672  18.684   7.948  0.5432  0.0273 -0.3793
    1W        W38206  21.737  13.478   6.648  0.2732  0.1369  0.1054
    1W        W38207  16.103   6.062   9.258  0.0776  0.0469  0.1445
    1W        W38208  21.033   9.605   2.156 -0.1159 -0.0246 -0.1231
    1W        W38209   8.663  15.859   6.777  0.1623 -0.3088 -0.0957
    1W        W38210  13.731  13.492   6.827  0.1875  0.1310 -0.0253
    1W        W38211  25.505  27.362   8.589 -0.0220 -0.0765 -0.0036
    1W        W38212  28.573   0.491   1.653 -0.0414 -0.1058  0.1464
    1W        W38213  15.965   7.641   1.516  0.1608  0.0034  0.1959
    1W        W38214  21.118  14.819   0.311 -0.1733  0.4327 -0.2604
    1W        W38215  17.943  25.012   8.282 -0.2221 -0.0315  0.0526
    1W        W38216  16.371  28.725   0.337  0.3249  0.0959 -0.1926
    1W        W38217  29.467  25.217   1.039 -0.0138 -0.0361 -0.1693
    1W        W38218  17.823  13.890   8.293 -0.3614 -0.1563 -0.0443
    1W        W38219  20.603   2.332   1.829  0.2585 -0.0655  0.0704
    1W        W38220  28.920  16.083   8.690 -0.0680  0.1064  0.2496
    1W        W38221  24.298  18.564   0.147  0.0779 -0.1058 -0.1332
    1W        W38222   2.730  18.601   2.091  0.2031  0.0387 -0.0720
    1W        W38223   2.292   7.641   9.356 -0.3116 -0.2041  0.2962
    1W        W38224  28.432   3.627   6.440 -0.0501  0.4347  0.2075
    1W        W38225  18.637   0.858   0.403  0.2323 -0.2356  0.2585
    1W        W38226   5.511  20.240   7.539  0.2175 -0.0034 -0.1218
    1W        W38227   5.045  17.950   1.030 -0.0426  0.0456  0.0931
    1W        W38228   8.808  14.524   7.995 -0.1665  0.5279 -0.0382
    1W        W38229  27.253   3.553   9.105 -0.3734  0.0321  0.0155
    1W        W38230  25.368  26.099   2.380 -0.0965 -0.0485  0.2191
    1W        W38231  26.303  18.539   2.602 -0.0672  0.0781 -0.0972
    1W        W38232  28.026   9.406   0.830 -0.1908 -0.3221  0.1265
    1W        W38233   8.301  18.460   0.901  0.2677  0.0576 -0.0790
    1W        W38234  14.980  29.714   7.254 -0.1844 -0.3107  0.2065
    1W        W38235  14.381  22.396   1.918  0.0418 -0.1222 -0.4245
    1W        W38236  19.669  22.535   0.077  0.3785 -0.0977  0.2005
    1W        W38237   5.204  21.112   8.205 -0.3860  0.0425 -0.4313
    1W        W38238  26.529  13.393   2.779 -0.3384  0.1223  0.0071
    1W        W38239   6.639   6.316   4.133  0.0895  0.1749  0.1726
    1W        W38240   1.407   7.399   3.195  0.1645  0.1282 -0.0401
    1W        W38241   7.123  28.236   6.415  0.0832  0.0767  0.2235
    1W        W38242  12.262  12.236   0.307  0.3627  0.2212 -0.0448
    1W        W38243  26.175  10.102   0.506 -0.1316  0.3579  0.3550
    1W        W38244  27.593   6.290   2.734  0.0059 -0.1776 -0.0732
    1W        W38245  12.812  11.632   7.245 -0.0303 -0.2513 -0.3478
    1W        W38246  21.054   8.496   7.093 -0.0104  0.0528 -0.0392
    1W        W38247  23.147  19.929   7.762 -0.2899 -0.2422  0.2130
    1W        W38248  16.373  18.945   0.674  0.0120 -0.2605 -0.2250
    1W        W38249  16.249  24.412   3.278 -0.1384  0.0720 -0.1207
    1W        W38250  14.931  21.839   2.106  0.0099  0.0052  0.0154
    1W        W38251   8.475   9.600   1.189  0.2028 -0.0256 -0.0997
    1W        W38252  20.244   6.526   0.365 -0.1454 -0.0388 -0.1387
    1W        W38253  10.156   7.507   9.046  0.1118  0.0922 -0.0917
    1W        W38254  10.478   0.107   2.522  0.3372 -0.1309 -0.2138
    1W        W38255  15.698  24.154   7.219  0.2128 -0.0542  0.1058
    1W        W38256  13.829   1.313   8.582 -0.2574  0.0741  0.0061
    1W        W38257  21.661  19.474   0.449 -0.0741  0.1502  0.1571
    1W        W38258  19.718   4.890   5.846  0.1889 -0.5013 -0.2004
    1W        W38259   2.956  15.885   0.395 -0.0828 -0.1184  0.2762
    1W        W38260  22.046  17.857   8.504  0.0573  0.0420 -0.1697
    1W        W38261  12.357   0.879   8.773 -0.0380 -0.0385 -0.0672
    1W        W38262   4.352  11.555   0.243  0.0184 -0.0986 -0.0713
    1W        W38263  19.574  10.555   0.026  0.0839 -0.1879 -0.0066
    1W        W38264  15.205   6.461   1.555 -0.1955  0.0683 -0.2173
    1W        W38265  19.166  10.292   9.406 -0.2329 -0.5184  0.2741
    1W        W38266   1.274   2.911   8.202 -0.0000  0.1597 -0.0741
    1W        W38267  14.954  27.657   8.134 -0.1435 -0.0729  0.0320
    1W        W38268  16.239  13.171   1.076  0.0547 -0.1932  0.4907
    1W        W38269  18.399  10.085   6.519  0.3223 -0.3524 -0.0045
    1W        W38270  11.599   9.908   1.267  0.3082 -0.0735 -0.0150
    1W        W38271   6.086   2.983   8.132  0.0043 -0.0811 -0.2395
    1W        W38272  21.772   0.234   9.276  0.1685  0.0543 -0.1154
    1W        W38273  19.979  29.766   8.983  0.0237  0.0607  0.2028
    1W        W38274  19.201  16.665   1.899  0.1975  0.0798 -0.2214
    1W        W38275  17.502  28.970   2.031  0.3921  0.4415 -0.0479
    1W        W38276  12.530  11.654   7.784  0.1412 -0.2918  0.2379
    1W        W38277  14.094  18.316   2.142  0.1262 -0.0277  0.0084
    1W        W38278   9.884  29.587   7.879 -0.0356  0.0523 -0.0185
    1W        W38279  21.476   3.904   9.412  0.1724  0.1010 -0.3379
    1W        W38280  22.074  20.915   1.424  0.0527  0.0111  0.1567
    1W        W38281  17.886  17.689   7.524  0.1057  0.3106 -0.0988
    1W        W38282  19.397  17.164   7.303 -0.0389 -0.1885 -0.0163
    1W        W38283  29.564  22.333   9.340  0.4981  0.0308 -0.0827
    1W        W38284  24.146   3.145   3.206 -0.1451  0.0226  0.0906
    1W        W38285   5.408  16.421   8.755 -0.1975  0.0622  0.0290
    1W        W38286  23.717   8.353   1.650  0.2139  0.1887 -0.2541
    1W        W38287  18.276   3.505   2.126  0.1236  0.1477  0.0501
    1W        W38288   1.415  24.159   7.436 -0.2610 -0.2468  0.4314
    1W        W38289   6.356  18.508   5.581 -0.0041  0.0875 -0.0688
    1W        W38290  28.743   3.392   1.423 -0.1524 -0.0981  0.0850
    1W        W38291   3.264   9.195   9.058  0.1453 -0.1833 -0.1081
    1W        W38292  28.063  11.763   7.935 -0.3007 -0.1579 -0.1770
    1W        W38293   3.188  11.979   1.449 -0.3214 -0.4229 -0.1340
    1W        W38294  27.176  11.718   6.691  0.1638 -0.2277 -0.1064
    1W        W38295   8.126  17.833   8.123 -0.0482  0.0481 -0.0598
    1W        W38296   3.359  22.159   9.107  0.0142 -0.2608 -0.0208
    1W        W38297  18.958  25.949   7.046 -0.2070 -0.1702  0.1664
    1W        W38298  18.218  16.754   7.888 -0.0586 -0.3087  0.3149
    1W        W38299   2.579   9.722   1.573  0.2059  0.0077 -0.0725
    1W        W38300   1.606   2.672   3.468 -0.1468  0.0873 -0.0708
    1W        W38301  15.307  28.416   9.076 -0.1172 -0.0507 -0.0192
    1W        W38302  13.546  24.112   0.945  0.1027 -0.1270 -0.0723
    1W        W38303   5.089  27.545   8.000  0.0004 -0.2788  0.0104
    1W        W38304   1.814  27.343   1.011  0.2549  0.1472 -0.2909
    1W        W38305   8.218   2.654   0.884 -0.0535 -0.0866 -0.3884
    1W        W38306   3.806   0.357   1.988 -0.0972 -0.1843 -0.1498
    1W        W38307  26.558   4.080   9.239  0.0599  0.1126  0.0499
    1W        W38308   3.886  18.751   8.384  0.0316 -0.0902 -0.2648
    1W        W38309  12.496  10.669   0.169 -0.1781  0.1660 -0.1371
    1W        W38310  10.292   5.287   2.240  0.0900 -0.1646 -0.0907
    1W        W38311  10.897  13.332   1.928  0.0052  0.0941  0.1197
    1W        W38312  24.463   5.984   9.286 -0.1381  0.0891  0.2536
    1W        W38313  17.102  18.612   7.552 -0.2926  0.0910  0.1139
    1W        W38314  28.840  21.122   7.828  0.0515  0.3255  0.1872
    1W        W38315   4.389   3.869   8.476  0.0214  0.0553  0.0252
    1W        W38316  16.351  10.207   8.077  0.1570 -0.0781 -0.0867
    1W        W38317   5.228  18.767   6.022 -0.0262  0.2237  0.2797
    1W        W38318  15.209   5.962   8.477 -0.0561 -0.3278 -0.0161
    1W        W38319  13.306   5.799   8.952 -0.1236  0.0360  0.1219
    1W        W38320  10.416   2.212   2.644  0.1033 -0.3637  0.3205
    1W        W38321   7.225   6.927   2.709  0.0220 -0.0559 -0.2774
    1W        W38322   3.297  20.249   5.997  0.2737 -0.0582 -0.0787
    1W        W38323  19.762   6.364   0.236 -0.1079 -0.1017  0.0673
    1W        W38324  25.290   4.882   7.801 -0.0868  0.0082  0.0381
    1W        W38325   9.326  12.716   8.932 -0.1412  0.0233  0.1376
    1W        W38326   5.831  11.393   7.788 -0.1442 -0.2568 -0.1649
    1W        W38327  25.050   1.512   6.820 -0.1779 -0.0641 -0.2280
    1W        W38328   5.186  21.590   8.419 -0.2352  0.0049 -0.0737
    1W        W38329  22.589  25.101   9.207 -0.1924 -0.0769 -0.1064
    1W        W38330  16.588   2.849   0.444  0.0385  0.0942 -0.0135
    1W        W38331  10.871  11.419   0.092 -0.0179 -0.1723  0.1447
    1W        W38332   7.848  16.803   0.939  0.1359  0.0637 -0.0861
    1W        W38333  11.665   4.730   7.766  0.0763  0.0606 -0.1473
    1W        W38334  25.005   3.454   8.763 -0.2210  0.0664 -0.0012
    1W        W38335  17.340  29.301   0.843 -0.0803 -0.1478  0.0210
    1W        W38336  11.581   4.222   2.712 -0.0336  0.1306  0.1956
    1W        W38337   0.168  24.887   2.325 -0.0066  0.3585  0.1189
    1W        W38338   8.288  21.050   1.249  0.0451  0.0559  0.2024
    1W        W38339  25.947  15.612   0.534  0.1099 -0.3075  0.3780
    1W        W38340  13.308   3.793   2.213  0.0513  0.0772 -0.1592
    1W        W38341  12.451  27.880   1.569 -0.1446  0.0070 -0.1611
    1W        W38342   2.113  15.070   8.014 -0.3348 -0.3158  0.2151
    1W        W38343  21.427  11.359   0.565 -0.1481 -0.1220  0.1876
    1W        W38344  10.535  19.722   0.514 -0.2468  0.1904  0.0239
    1W        W38345  20.555   6.973   8.315 -0.1392 -0.2443 -0.0369
    1W        W38346   5.052  19.226   0.517 -0.2509 -0.1985 -0.0648
    1W        W38347  28.481  10.410   6.739 -0.0945  0.4441  0.0049
    1W        W38348  22.440  25.809   0.913 -0.1389 -0.0706 -0.2081
    1W        W38349  24.891   0.477   1.587  0.2084 -0.2285  0.2955
    1W        W38350  12.427  25.166   1.793  0.0622  0.1927  0.2386
    1W        W38351  25.472  28.177   2.895 -0.2060 -0.2368  0.4976
    1W        W38352  22.106   3.937   9.156 -0.1853 -0.0784  0.0284
    1W        W38353   0.972   9.125   6.762  0.0011 -0.2709 -0.1077
    1W        W38354  15.927  24.842   3.317 -0.0439 -0.1844 -0.3609
    1W        W38355   6.182  16.048   7.018  0.4880  0.0920  0.2336
    1W        W38356   1.808   5.645   3.079  0.0516 -0.1166 -0.1179
    1W        W38357   2.846   8.430   3.527 -0.0817  0.3992 -0.4925
    1W        W38358   0.431  20.312   0.299  0.0971  0.2841 -0.0015
    1W        W38359  14.457  14.760   2.039  0.0304  0.0471 -0.3539
    1W        W38360   7.427  18.918   8.036  0.1667  0.0193  0.2146
    1W        W38361   0.972   8.510   2.537 -0.4347  0.0157 -0.1322
    1W        W38362  29.696  26.356   8.480  0.1919  0.2582  0.0211
    1W        W38363   1.787  17.633   1.415 -0.0757  0.0234 -0.2503
    1W        W38364  21.286   2.375   3.155 -0.0465  0.0321 -0.1730
    1W        W38365  25.100  19.738   8.980 -0.3304 -0.0236  0.1423
    1W        W38366   5.188   2.171   0.212  0.0935  0.0000  0.1185
    1W        W38367  13.676  14.600   1.214 -0.1837  0.1328  0.0784
    1W        W38368  19.205  23.752   2.711 -0.1617  0.0248  0.1131
    1W        W38369   2.002  17.737   7.326 -0.4612  0.1457  0.1200
    1W        W38370  18.477  12.192   1.624 -0.0455  0.2150  0.1236
    1W        W38371  16.223  25.909   0.502 -0.1018  0.2618 -0.1782
    1W        W38372  17.783  12.386   7.812 -0.0300  0.0855 -0.0083
    1W        W38373  17.499   5.298   9.165  0.0349  0.2022 -0.2168
    1W        W38374   3.227   4.036   2.827 -0.0074 -0.0429  0.2079
    1W        W38375  11.779  22.165   1.117  0.2274 -0.1007 -0.1304
    1W        W38376  23.471  24.888   9.148  0.0125 -0.3024 -0.2485
    1W        W38377   7.733  27.910   7.207  0.3733 -0.1628 -0.0490
    1W        W38378  10.637  28.861   9.441  0.1111  0.1249 -0.0024
    1W        W38379  16.302  25.172   7.705  0.0235  0.2687 -0.1412
    1W        W38380   7.228   4.771   7.879 -0.2467 -0.3200  0.1469
    1W        W38381   0.269   7.940   0.254 -0.1492 -0.2504 -0.0803
    1W        W38382   4.090   6.122   8.299  0.0666  0.0144 -0.0567
    1W        W38383  11.901  10.360   1.328 -0.0347  0.3241 -0.1408
    1W        W38384  13.615  14.921   1.611 -0.0061  0.3101 -0.2766
    1W        W38385  14.256   1.636   0.568 -0.0109  0.1994 -0.0339
    1W        W38386   6.240  20.433   5.167 -0.1037  0.1412 -0.0360
    1W        W38387   0.428  24.288   0.006 -0.0423  0.0676 -0.1463
    1W        W38388  14.975   6.170   0.649  0.1740 -0.1863  0.1589
    1W        W38389  25.102  14.037   2.753  0.0576  0.2465  0.1029
    1W        W38390   5.411  18.869   0.316  0.2230  0.0234  0.1720
    1W        W38391   4.382   6.331   8.671  0.0332 -0.0182  0.0770
    1W        W38392   4.406  10.616   8.590  0.1221 -0.1458  0.1145
    1W        W38393  21.694  26.667   0.536 -0.1127  0.1595  0.3567
    1W        W38394  25.788  12.797   6.371 -0.2489 -0.0149 -0.0400
    1W        W38395  28.950  11.465   7.894 -0.1011 -0.0101 -0.0231
    1W        W38396  12.821  24.926   8.795  0.0288  0.0640  0.0073
    1W        W38397  11.655   1.321   8.150  0.0933  0.0590 -0.2759
    1W        W38398   6.181  16.887   0.193  0.1857  0.3574  0.0049
    1W        W38399   3.405  10.585   8.050 -0.1108 -0.3513  0.0089
    1W        W38400  18.417  14.813   7.526 -0.2437  0.1390  0.1478
    1W        W38401  28.274  11.640   2.317 -0.4546 -0.1912  0.0175
    1W        W38402  23.241  15.926   7.213  0.2221  0.0196  0.0244
    1W        W38403  12.045   4.575   3.300 -0.1006 -0.0729  0.3910
    1W        W38404  20.027  13.115   7.117  0.2181 -0.0010 -0.2559
    1W        W38405  13.582  25.285   7.591 -0.0808 -0.4692 -0.1048
    1W        W38406   1.037   8.920   1.150 -0.2187 -0.1247 -0.1411
    1W        W38407  29.075  19.701   9.377 -0.1015 -0.0121  0.1250
    1W        W38408   5.657  11.547   8.658 -0.2657  0.1028  0.2484
    1W        W38409  18.696  26.455   7.400 -0.2963  0.0940  0.0009
    1W        W38410  11.144   2.084   0.857 -0.0836 -0.0620  0.2373
    1W        W38411   9.339   9.632   0.571 -0.0587  0.0966  0.1595
    1W        W38412   7.054  10.521   1.468 -0.0098  0.1318 -0.0050
    1W        W38413  11.292   4.587   2.086 -0.2824 -0.1741 -0.3132
    1W        W38414  18.512  25.585   0.750 -0.6253  0.2368 -0.0079
    1W        W38415  12.336  19.613   6.996  0.0873 -0.0855 -0.2725
    1W        W38416  28.741   1.021   8.752 -0.0883  0.0081  0.1998
    1W        W38417   2.490  15.311   8.881  0.2432  0.2784  0.1987
    1W        W38418   0.529  15.163   1.927  0.1191  0.0017  0.1388
    1W        W38419  18.871  16.995   8.696 -0.0931  0.0152  0.0583
    1W        W38420  18.508  27.133   9.039 -0.0197 -0.0316 -0.1857
    1W        W38421  13.710   1.187   3.113  0.2528 -0.1098  0.0858
    1W        W38422  23.553  18.107   9.417 -0.0868  0.3313 -0.0508
    1W        W38423  22.864  22.647   7.646 -0.0461  0.0218 -0.0604
    1W        W38424   0.131  28.423   1.241  0.1830 -0.1190 -0.1645
    1W        W38425  12.660  24.994   7.587  0.0462  0.3970  0.2836
    1W        W38426  14.821   7.571   1.397 -0.1003  0.0919  0.1289
    1W        W38427  17.263  18.015   2.113  0.1893 -0.0592 -0.0137
    1W        W38428   3.373   7.029   8.671  0.2772 -0.0123 -0.0374
    1W        W38429  27.781   2.377   6.827 -0.2360  0.1618  0.0029
    1W        W38430   1.523  21.500   7.787  0.0132  0.1753  0.0106
    1W        W38431   2.308  14.604   7.077 -0.2811  0.0539  0.1240
    1W        W38432  24.734  14.431   7.503 -0.0020 -0.0461  0.2452
    1W        W38433  13.314   5.830   2.941  0.1382  0.0362 -0.1447
    1W        W38434   2.092  10.545   7.407 -0.1105  0.0162  0.2271
    1W        W38435  24.856   9.652   6.822  0.2210 -0.0315  0.1248
    1W        W38436   3.332  22.582   9.356 -0.0929 -0.1678  0.1256
    1W        W38437   4.883  14.593   2.283  0.1971 -0.1941  0.0370
    1W        W38438  29.458  10.299   8.884 -0.0429 -0.1438  0.1639
    1W        W38439  17.297  23.825   8.179 -0.1445 -0.0820  0.0582
    1W        W38440   6.120   5.286   0.438 -0.1249 -0.0470  0.1793
    1W        W38441  13.821  12.511   7.398 -0.2692  0.3422  0.1817
    1W        W38442  18.727   8.354   7.906  0.2845  0.0769 -0.0091
    1W        W38443  14.949   5.632   8.909  0.0908  0.1224 -0.0548
    1W        W38444   6.936  13.937   0.245 -0.2573  0.2350  0.2002
    1W        W38445  21.944  23.822   6.534 -0.1184 -0.5478 -0.4197
    1W        W38446  28.886  16.845   0.717  0.0047  0.1176 -0.0790
    1W        W38447  24.980   5.459   8.431 -0.0325  0.0056  0.0833
    1W        W38448  21.916  26.884   0.100 -0.3651 -0.4766  0.3354
    1W        W38449   3.965   7.430   9.108 -0.0541 -0.1863 -0.1832
    1W        W38450  26.544   8.796   2.911 -0.0664  0.1434 -0.2902
    1W        W38451  11.042   2.866   2.103  0.0457  0.1512 -0.3152
    1W        W38452   2.402  12.776   1.587 -0.0913  0.2091 -0.0027
    1W        W38453  18.468  25.770   2.262 -0.1635  0.2127 -0.0835
    1W        W38454  23.681   2.233   2.719 -0.0704 -0.0346  0.2274
    1W        W38455   9.901   8.536   2.175  0.0150  0.1278 -0.1479
    1W        W38456   5.157   6.003   7.274 -0.1925  0.1065 -0.0053
    1W        W38457  25.666  25.548   2.537 -0.2318 -0.1199 -0.1545
    1W        W38458  22.136  19.613   2.591  0.1636  0.1216 -0.3842
    1W        W38459  18.389  22.151   1.738 -0.0747 -0.2043  0.0720
    1W        W38460  18.858  23.962   8.181 -0.0276 -0.1050 -0.0359
    1W        W38461  23.318  25.181   1.028  0.0946 -0.0380  0.0265
    1W        W38462  22.995  29.478   2.593  0.0943 -0.3485 -0.1312
    1W        W38463   0.029   9.922   9.459 -0.0020  0.3277  0.0585
    1W        W38464   2.200   8.411   2.317 -0.0033 -0.0156  0.2946
    1W        W38465  29.220  13.462   8.838  0.3224  0.1860  0.3538
    1W        W38466   6.345   7.364   0.317  0.1816 -0.0724 -0.1268
    1W        W38467  18.842   6.157   7.125 -0.0319  0.1432  0.0511
    1W        W38468  24.815  18.572   2.834 -0.0653  0.1014  0.2058
    1W        W38469   2.806  13.693   7.964  0.3513 -0.0586 -0.0518
    1W        W38470   3.479   5.685   7.056  0.0102 -0.2503  0.0796
    1W        W38471   6.646  29.676   0.412  0.0011 -0.1039 -0.2876
    1W        W38472  24.451  17.449   1.443  0.1684  0.2113 -0.0669
    1W        W38473  19.663  18.466   7.637 -0.1352 -0.2232 -0.1396
    1W        W38474  29.660  13.953   1.625  0.3083  0.0502 -0.0097
    1W        W38475   1.627  26.904   0.270 -0.1872  0.1442  0.1583
    1W        W38476  18.274  21.797   2.477  0.0343  0.0372  0.0002
    1W        W38477   8.233  27.667   2.982  0.4035 -0.2632  0.0725
    1W        W38478   3.096   3.443   8.823 -0.0664  0.0115 -0.1920
    1W        W38479  14.548  18.768   1.234  0.0220  0.1243 -0.2790
    1W        W38480   1.028  19.347   8.288 -0.0918 -0.0925 -0.0748
    1W        W38481   6.760  23.795   6.360  0.2664  0.2539 -0.1627
    1W        W38482   8.962  23.708   1.889  0.2635 -0.1595 -0.0432
    1W        W38483  17.365  21.416   1.734  0.0156 -0.0898 -0.2555
    1W        W38484  21.599   3.529   2.234  0.2195 -0.1054  0.1867
    1W        W38485  15.180  14.977   7.038 -0.1629 -0.0317 -0.3161
    1W        W38486   7.709   9.207   3.169 -0.0995  0.0772 -0.2632
    1W        W38487   9.501  22.664   6.689  0.1075  0.0752 -0.1159
    1W        W38488  10.470  29.285   0.365 -0.0457 -0.0977  0.1211
    1W        W38489   9.723  26.335   6.635  0.0964 -0.3771  0.3103
    1W        W38490   8.441  10.061   2.267  0.1369  0.3165  0.0256
    1W        W38491  27.064   3.883   1.923  0.0636 -0.1432  0.1572
    1W        W38492  26.433  20.856   8.570 -0.2578 -0.1025 -0.1387
    1W        W38493   7.213  25.663   7.840  0.2651 -0.0851  0.2343
    1W        W38494  16.126   7.154   1.617  0.1461  0.1235 -0.2758
    1W        W38495  10.453  25.050   7.371 -0.1154  0.2960  0.1132
    1W        W38496   5.506  14.683   1.006  0.0995  0.0095  0.2829
    1W        W38497  10.117   5.365   3.508 -0.0893  0.0652  0.0117
    1W        W38498  17.134  20.000   9.303 -0.2132  0.2218 -0.3894
    1W        W38499   8.329  22.309   1.677  0.1240 -0.0626 -0.1397
    1W        W38500  26.062  12.666   8.249 -0.1497  0.0231  0.1072
    1W        W38501   6.372  27.994   6.454  0.0779 -0.1309 -0.2936
    1W        W38502  27.735  21.003   6.295  0.1575 -0.0116 -0.1183
    1W        W38503   4.516  21.728   6.902 -0.1765 -0.1376 -0.0379
    1W        W38504  25.424  25.829   7.932 -0.0717 -0.0036 -0.0323
    1W        W38505   3.725  22.169   1.268 -0.2510 -0.0401  0.0763
    1W        W38506  26.099   2.055   9.393  0.3392  0.1213  0.0016
    1W        W38507   9.317   2.207   1.042  0.1785 -0.0154  0.0247
    1W        W38508  27.798   5.359   0.289  0.2376 -0.1712  0.0210
    1W        W38509  20.836  10.695   7.171  0.0153  0.1164  0.1802
    1W        W38510  29.584  19.529   9.279 -0.1129 -0.0739 -0.3372
    1W        W38511  17.242  21.560   1.242  0.5166 -0.0827 -0.1874
    1W        W38512  21.579  12.440   2.152 -0.0119  0.0831  0.2285
    1W        W38513   6.590   3.146   1.626  0.1864 -0.0159 -0.0258
    1W        W38514  19.902   9.216   8.787  0.2996 -0.1033 -0.0866
    1W        W38515  29.518  23.016   2.041  0.0170  0.0816 -0.0393
    1W        W38516  24.616  11.846   9.242  0.1535  0.0425  0.0104
    1W        W38517   1.244  16.072   1.859 -0.0223 -0.1504  0.1462
    1W        W38518  24.883   9.404   3.063  0.2140  0.2307 -0.0762
    1W        W38519   8.715   9.151   1.270 -0.2765  0.3175 -0.0621
    1W        W38520  19.879  24.209   2.888  0.2088 -0.1233  0.0257
    1W        W38521  13.553   4.369   3.218  0.2170 -0.0471  0.1347
    1W        W38522  24.044  12.410   8.457 -0.1123  0.1435  0.2763
    1W        W38523  25.396  10.443   2.151 -0.0913 -0.1029 -0.0014
    1W        W38524  27.979  24.213   8.803 -0.1590  0.1115 -0.1919
    1W        W38525  27.186  16.644   8.430  0.0714  0.0926 -0.1494
    1W        W38526  26.316  12.369   6.988  0.0322 -0.0584  0.4378
    1W        W38527   2.126   2.060   8.434  0.1195  0.1087 -0.0984
    1W        W38528   1.064  21.534   0.211  0.1351  0.2661 -0.1048
    1W        W38529   9.234   5.852   0.908  0.0649  0.0391 -0.2696
    1W        W38530  15.874  23.374   2.840 -0.0828  0.0765 -0.0962
    1W        W38531  28.222   7.612   7.177  0.1217  0.0503  0.1738
    1W        W38532  17.047   8.282   8.146  0.0408  0.0287 -0.2061
    1W        W38533  18.541  12.503   9.321  0.2336  0.4122 -0.0619
    1W        W38534   6.006  16.219   8.255 -0.4064 -0.0724 -0.0046
    1W        W38535  26.315  11.867   5.628  0.0297 -0.0672  0.2060
    1W        W38536   6.009   5.803   7.132 -0.0721  0.0890  0.0803
    1W        W38537  18.061  16.086   0.766 -0.1395  0.4031  0.2447
    1W        W38538  22.567  10.543   1.893  0.1361 -0.3133  0.1772
    1W        W38539  12.571   2.345   3.382  0.0493  0.0495  0.1779
    1W        W38540   4.829  12.828   1.513  0.0382  0.1764  0.0929
    1W        W38541  11.437  23.612   8.152 -0.0324 -0.1597  0.3946
    1W        W38542  11.480  19.205   0.862 -0.0298  0.2958 -0.2716
    1W        W38543  18.297   7.654   2.150  0.1091 -0.0341  0.0415
    1W        W38544  13.746   0.796   8.738  0.0536  0.1971  0.1968
    1W        W38545  27.553  13.739   8.107 -0.2066  0.1032 -0.1409
    1W        W38546  21.689  22.061   3.767  0.1241  0.2318  0.0373
    1W        W38547  23.296  28.501   7.668 -0.0337 -0.4043 -0.1141
    1W        W38548   6.145  27.469   8.836  0.1724 -0.1174  0.2536
    1W        W38549  24.605  11.847   7.174 -0.3051  0.0765  0.1540
    1W        W38550  15.526   7.893   7.872  0.1222 -0.3611  0.0150
    1W        W38551  24.742  23.782   0.409  0.3300 -0.0781 -0.1927
    1W        W38552  22.371   1.070   8.380 -0.0628 -0.2008  0.2221
    1W        W38553  24.766  11.126   6.715 -0.2278  0.0545 -0.2350
    1W        W38554   9.526  24.515   1.050 -0.0439 -0.0983  0.0900
    1W        W38555  23.639   3.777   7.591 -0.3241 -0.1263  0.2386
    1W        W38556   6.654  11.320   1.927  0.0149 -0.0916  0.0016
    1W        W38557  22.075   1.448   1.467 -0.0579  0.1131  0.4570
    1W        W38558  17.290   0.352   8.197 -0.2347 -0.1098  0.1083
    1W        W38559  28.941   9.956   7.380 -0.1029 -0.0060 -0.1272
    1W        W38560  15.864  16.292   1.577 -0.0275 -0.3366  0.2560
    1W        W38561  27.965  24.057   7.401 -0.1242 -0.1952  0.2040
    1W        W38562  20.736  28.102   3.187 -0.0778 -0.2569 -0.0179
    1W        W38563  14.217   6.497   8.203  0.0168  0.0421 -0.0950
    1W        W38564   3.406  19.586   6.315 -0.1739  0.1458 -0.1751
    1W        W38565   3.698   8.978   8.181  0.1954  0.2022 -0.1219
    1W        W38566  25.714  10.359   6.451 -0.2004  0.1370 -0.1446
    1W        W38567  21.673  25.660   8.633  0.0726 -0.0707  0.1957
    1W        W38568  19.818  23.620   8.327  0.0094  0.4143 -0.1780
    1W        W38569  14.424  16.559   1.549 -0.0926  0.0015  0.3512
    1W        W38570   2.688  26.141   7.627 -0.0495  0.0436  0.2304
    1W        W38571  22.556   9.085   7.576  0.2386 -0.0864  0.1243
    1W        W38572   3.706  21.988   6.238 -0.1159 -0.0856  0.0590
    1W        W38573  13.739  10.996   0.420 -0.0884  0.2129 -0.0070
    1W        W38574   1.944   5.921   1.698  0.1732 -0.1236  0.1201
    1W        W38575  14.569  11.725   0.117 -0.0388  0.3332 -0.0115
    1W        W38576   1.502  21.366   6.288 -0.0132  0.2333  0.0961
    1W        W38577  21.515  10.799   6.696  0.1538 -0.1035  0.1504
    1W        W38578  18.686   2.971   8.492 -0.3707 -0.0206 -0.0978
    1W        W38579   2.695  18.133   5.824  0.0249 -0.2022  0.1706
    1W        W38580  14.354   4.447   7.606  0.1121  0.2217  0.1098
    1W        W38581   4.431  11.577   1.249 -0.2461 -0.0200 -0.2910
    1W        W38582   8.580  26.074   8.723 -0.3339  0.0034 -0.1438
    1W        W38583  15.880  12.575   0.850  0.0046 -0.3922  0.1799
    1W        W38584   9.216   4.942   2.951 -0.4200 -0.0652  0.0986
    1W        W38585   8.588   8.421   8.851 -0.1434  0.1240  0.0965
    1W        W38586  22.645   1.246   9.180  0.0457  0.0869 -0.1380
    1W        W38587  14.509  18.396   8.449  0.0098  0.2688  0.0337
    1W        W38588   7.125  10.586   7.354  0.0490  0.1416 -0.1835
    1W        W38589  19.953  27.026   8.308  0.1529 -0.1838 -0.2978
    1W        W38590   5.884  19.351   7.519 -0.2380 -0.4333 -0.0010
    1W        W38591  29.431   5.378   0.817 -0.1080 -0.0708 -0.6193
    1W        W38592  14.372  24.541   1.888 -0.1945  0.5199  0.0823
    1W        W38593   8.564   6.205   7.791  0.1059  0.1505  0.0962
    1W        W38594  24.830  25.422   1.163 -0.2897  0.3504  0.1436
    1W        W38595  25.951  19.389   2.079  0.1458 -0.0467  0.2584
    1W        W38596   2.161  15.445   1.659 -0.0066  0.1200 -0.2439
    1W        W38597  26.020  10.162   1.011  0.0240 -0.0762  0.0404
    1W        W38598  25.812  14.221   9.276 -0.1029  0.2551  0.2208
    1W        W38599   4.310   1.852   8.061  0.0274  0.0460 -0.0164
    1W        W38600  20.413  16.198   7.163  0.5129 -0.1542 -0.1999
    1W        W38601  17.532  12.032   1.541  0.2203  0.1319  0.0891
    1W        W38602  18.250   5.669   7.711 -0.0670  0.1724 -0.0585
    1W        W38603  23.535  29.287   3.423  0.2766  0.1261 -0.0240
    1W        W38604  25.942  28.578   2.419 -0.4730  0.3355  0.0435
    1W        W38605  29.778  29.127   8.475 -0.2201  0.2496 -0.0344
    1W        W38606  23.506   5.815   8.682  0.0128  0.0796  0.1793
    1W        W38607  24.085  27.526   2.103  0.0670  0.0460 -0.1808
    1W        W38608  25.233   3.525   0.860 -0.1886  0.0580 -0.1312
    1W        W38609  14.230   2.163   8.239 -0.1318 -0.1952  0.2130
    1W        W38610  22.593  15.996   7.135  0.0387  0.1679  0.0113
    1W        W38611  29.559  20.333   0.960 -0.0269 -0.1494  0.1839
    1W        W38612   3.931  25.462   7.992 -0.0615 -0.1530 -0.0821
    1W        W38613   8.657   8.338   7.513  0.0831  0.1907 -0.1052
    1W        W38614   2.512  13.855   0.249 -0.1446  0.3803  0.2483
    1W        W38615   7.809   1.039   0.456  0.2727 -0.0622  0.0623
    1W        W38616   4.600  29.276   7.339  0.2947 -0.0948  0.2604
    1W        W38617   4.098   8.580   0.418 -0.0906 -0.3285  0.0984
    1W        W38618  10.361   7.911   2.466  0.0961 -0.1247 -0.0498
    1W        W38619  19.005  21.348   8.661  0.1952  0.3426 -0.1478
    1W        W38620  11.425  10.761   8.003 -0.1976  0.0593  0.1496
    1W        W38621   0.442  10.402   1.756 -0.1618 -0.0088  0.0810
    1W        W38622   2.805  12.762   7.254  0.1258 -0.1216  0.0652
    1W        W38623  26.745   9.868   1.323  0.0290 -0.1014  0.1356
    1W        W38624  27.119  25.785   6.402  0.3459 -0.2270 -0.0648
    1W        W38625  14.652   6.209   0.237 -0.0307  0.1556  0.0026
    1W        W38626   7.388  21.588   8.820 -0.0390 -0.0390 -0.2893
    1W        W38627  16.850   2.801   7.645  0.4045  0.0774  0.2571
    1W        W38628   3.503  28.495   7.908 -0.1276 -0.0289  0.4715
    1W        W38629  20.272  28.969   8.961  0.0961  0.2579  0.1571
    1W        W38630   1.336  20.519   2.468 -0.3383 -0.2154  0.0455
    1W        W38631   2.531  27.601   2.511  0.2715  0.2096 -0.1468
    1W        W38632   5.923  28.870   0.472 -0.2722  0.1385  0.1478
    1W        W38633  12.067  10.714   0.998  0.1555  0.1528  0.0504
    1W        W38634  28.858  29.562   8.213  0.2437  0.2454  0.1393
    1W        W38635   9.953   9.269   8.884 -0.0929 -0.2083 -0.0726
    1W        W38636  28.612  24.507   0.420  0.0570 -0.1382  0.2308
    1W        W38637   9.402   1.791   3.804  0.1140  0.0080 -0.0273
    1W        W38638  12.671  17.691   8.518 -0.2312  0.1279  0.2215
    1W        W38639  27.249   6.868   7.354  0.1116  0.1885  0.0417
    1W        W38640   9.566   8.237   8.835 -0.1913  0.1009  0.0587
    1W        W38641   7.046  13.506   1.324 -0.0077 -0.1482  0.0351
    1W        W38642  16.631  22.676   1.584  0.1316 -0.0481 -0.0692
    1W        W38643  25.644  27.796   7.324 -0.1651 -0.0966  0.1795
    1W        W38644  25.562   7.411   3.423  0.1666 -0.0859  0.2765
    1W        W38645  12.468  11.048   7.438  0.0341  0.0967 -0.0850
    1W        W38646   7.950  11.643   2.541  0.0405  0.3959 -0.1119
    1W        W38647   7.068  21.804   6.660  0.0393  0.0947 -0.1464
    1W        W38648  10.510  28.525   0.366  0.1442  0.2594  0.1757
    1W        W38649  15.956  29.082   2.718 -0.3767 -0.1787  0.0386
    1W        W38650  17.909  29.161   7.708 -0.0169 -0.0553 -0.1767
    1W        W38651  10.383   8.965   2.849 -0.3721  0.1901 -0.1051
    1W        W38652  29.101   8.409   7.218  0.1445 -0.0241  0.1099
    1W        W38653   2.495  19.686   8.327 -0.0594  0.0000 -0.1034
    1W        W38654   2.471  22.930   1.113  0.1922  0.3918 -0.2930
    1W        W38655  20.251   2.948   8.861 -0.0269  0.0922 -0.1395
    1W        W38656  16.732  26.750   1.424  0.0068  0.0712  0.2423
    1W        W38657  27.493  20.845   1.827 -0.0880  0.3089  0.2643
    1W        W38658  26.981  11.014   1.956 -0.0417 -0.2088 -0.0938
    1W        W38659  14.149   6.656   1.049  0.2925 -0.0581 -0.2496
    1W        W38660  25.879  28.240   8.244 -0.0486 -0.1099 -0.0748
    1W        W38661  15.337  12.941   6.832 -0.0458 -0.0551 -0.1059
    1W        W38662  17.168   6.056   1.877 -0.1398 -0.1080 -0.1566
    1W        W38663   1.941  20.462   8.570  0.0860  0.0229 -0.1840
    1W        W38664  24.611  15.131   6.369 -0.3511  0.4617  0.1800
    1W        W38665  27.271   9.686   1.837  0.3005 -0.3318  0.0643
    1W        W38666  17.289  17.049   0.292  0.3440 -0.0673  0.1346
    1W        W38667  26.735  19.385   8.467  0.0183 -0.0339  0.0583
    1W        W38668  22.185   1.071   0.393  0.2645 -0.0412 -0.0684
    1W        W38669   6.397   5.106   8.982 -0.1145 -0.1009 -0.0790
    1W        W38670  15.952  27.654   1.634 -0.0398 -0.0240 -0.1469
    1W        W38671  28.959  25.119   1.098  0.0043  0.2823  0.2154
    1W        W38672  25.333  23.851   0.397  0.0678  0.1785 -0.2141
    1W        W38673  23.492   5.363   1.014 -0.0136  0.0573 -0.2568
    1W        W38674  27.130  18.523   0.623 -0.1689  0.0331 -0.2612
    1W        W38675   8.800   2.097   0.255  0.2530  0.0318  0.0952
    1W        W38676  24.002  28.858   1.971 -0.1013 -0.0984 -0.1932
    1W        W38677   9.720  29.709   1.517  0.1937 -0.1599  0.0642
    1W        W38678   0.306   6.223   1.448  0.0213 -0.2005  0.4517
    1W        W38679  21.666   0.016   0.299  0.1038  0.1788  0.1666
    1W        W38680   2.315   5.400   7.123  0.0797  0.1026  0.1041
    1W        W38681   4.996   9.371   7.573  0.0097  0.1374 -0.1054
    1W        W38682  10.708  16.743   7.049 -0.2340 -0.2991  0.0181
    1W        W38683  27.201  27.606   6.541 -0.0731  0.0210 -0.1780
    1W        W38684  20.255   7.625   1.343  0.0548 -0.0466 -0.0769
    1W        W38685  22.157  16.314   0.401 -0.2065 -0.0375  0.0435
    1W        W38686  16.765   0.235   9.362 -0.1547  0.0117  0.1344
    1W        W38687  21.754  28.192   6.975 -0.1121 -0.3237  0.0131
    1W        W38688   0.198   7.382   0.414  0.2386 -0.0845  0.0467
    1W        W38689   5.490  14.026   8.085 -0.1926 -0.2998  0.1498
    1W        W38690  10.731  14.014   8.056 -0.1175 -0.1198  0.0311
    1W        W38691   3.500  15.202   8.051  0.0937  0.2634  0.2325
    1W        W38692  12.066  22.194   1.566 -0.2658  0.0701 -0.0881
    1W        W38693  23.887  11.225   7.301  0.0445 -0.1401 -0.4349
    1W        W38694  26.456  25.292   3.043  0.3302 -0.1593  0.0865
    1W        W38695  27.377  27.163   7.400  0.0288 -0.2007  0.3359
    1W        W38696  17.464  18.195   8.484  0.0929  0.1066  0.0238
    1W        W38697   4.756   8.429   1.208  0.2156  0.0205 -0.0278
    1W        W38698  25.081  20.089   6.959 -0.0427 -0.0152  0.2191
    1W        W38699  18.562  26.242   8.727 -0.0004  0.0928  0.1085
    1W        W38700  15.048  28.188   7.241 -0.0406 -0.3073  0.3136
    1W        W38701  23.839  28.020   2.025  0.1782 -0.2733 -0.1464
    1W        W38702  17.331   7.706   1.989 -0.1402 -0.0645 -0.1185
    1W        W38703  11.852  21.946   7.108 -0.2698 -0.0002  0.0601
    1W        W38704  13.709  22.081   0.988 -0.2724 -0.1451  0.2897
    1W        W38705  29.697  23.152   2.470 -0.6221  0.0358 -0.0310
    1W        W38706  16.116   0.915   1.971 -0.0174  0.0289 -0.1831
    1W        W38707   8.795   0.499   7.772  0.2987  0.5292 -0.1765
    1W        W38708  17.020   3.172   0.261  0.1910  0.0517 -0.1897
    1W        W38709  27.590   4.796   1.917  0.1550 -0.2049  0.1020
    1W        W38710  24.939   2.929   7.066  0.0505  0.4814 -0.0788
    1W        W38711  28.295  21.201   9.076  0.3362  0.1822 -0.0772
    1W        W38712  17.236  12.111   1.054  0.0539 -0.5770 -0.1924
    1W        W38713   3.979  24.645   8.553  0.1235  0.1918  0.2121
    1W        W38714  17.407   6.623   1.175 -0.2530  0.1366 -0.0802
    1W        W38715   8.899  23.227   7.292 -0.0549  0.3017 -0.0344
    1W        W38716   8.276   9.116   2.987  0.1382  0.0255  0.1253
    1W        W38717   2.196   0.537   0.804 -0.1670 -0.0235 -0.3948
    1W        W38718  24.734  27.255   3.229  0.3516  0.1221  0.1361
    1W        W38719  21.857  10.153   6.075  0.0468 -0.0037  0.1309
    1W        W38720  11.165  29.322   9.096 -0.0271  0.0228  0.1033
    1W        W38721  11.500  12.784   2.980 -0.1062  0.2237 -0.0327
    1W        W38722  21.007   0.267   8.708 -0.0701  0.4181  0.1166
    1W        W38723  14.222   0.635   0.079 -0.3126 -0.1663  0.4689
    1W        W38724   1.362  25.225   6.110  0.0059 -0.0955  0.0742
    1W        W38725  21.851  13.146   7.869 -0.0790  0.2058  0.3211
    1W        W38726   2.557   5.957   8.453 -0.0116 -0.2369 -0.1010
    1W        W38727  27.697  16.369   8.462  0.1086  0.0439 -0.0729
    1W        W38728  10.494  15.975   6.608 -0.0558  0.0969  0.3191
    1W        W38729  10.766  22.704   8.134  0.0248  0.1786  0.2940
    1W        W38730  26.552  21.431   8.465 -0.2516 -0.0194  0.1129
    1W        W38731   7.077  27.195   1.201 -0.1497 -0.0252  0.0181
    1W        W38732  10.855  11.950   2.600  0.2328  0.2816  0.0732
    1W        W38733  19.059   8.163   7.545 -0.0778 -0.1365 -0.0045
    1W        W38734   8.386   3.453   1.248 -0.0364  0.0741 -0.0990
    1W        W38735   6.465  10.145   0.433  0.0004  0.0888  0.0704
    1W        W38736  27.905  23.324   8.645 -0.1955  0.0715  0.1952
    1W        W38737   9.281  19.017   8.048  0.3359 -0.0746 -0.0981
    1W        W38738  19.123  16.150   1.855 -0.0462  0.0940 -0.1220
    1W        W38739   9.096  17.294   7.865  0.0789  0.1885 -0.4292
    1W        W38740  11.069   8.795   8.946 -0.1017  0.1230 -0.2466
    1W        W38741  24.951   8.843   1.480  0.0685 -0.0758 -0.1863
    1W        W38742  29.159   4.247   8.240 -0.3982 -0.0268 -0.2287
    1W        W38743  28.543  19.145   7.341 -0.1747 -0.2930  0.6379
    1W        W38744   4.769  29.575   8.173  0.1983  0.1121  0.1223
    1W        W38745  15.858  25.376   2.815 -0.2507 -0.1566  0.0867
    1W        W38746   5.649  20.192   1.397  0.1347  0.2245  0.2730
    1W        W38747  28.322  27.823   1.399 -0.0195  0.0539  0.0856
    1W        W38748  17.672  21.872   1.137 -0.0662 -0.0423  0.1598
    1W        W38749  26.461  11.065   1.956 -0.0997  0.2201  0.1397
    1W        W38750  25.605   9.838   7.776 -0.2128 -0.1433  0.1911
    1W        W38751  14.254   5.865   0.039  0.1779  0.1561 -0.2528
    1W        W38752  25.114  10.466   1.209  0.0407 -0.1786  0.1615
    1W        W38753  23.024   7.626   3.212 -0.0933 -0.0121 -0.1739
    1W        W38754  26.456  26.257   8.496 -0.0190 -0.0411 -0.2364
    1W        W38755  20.956  26.625   2.892 -0.1283  0.1900  0.3808
    1W        W38756  19.804  17.238   0.664  0.0662  0.2772  0.0704
    1W        W38757  26.320  14.860   1.471  0.1316 -0.0923  0.0352
    1W        W38758  23.569   7.754   3.064 -0.0027  0.1627  0.1130
    1W        W38759  29.562  13.732   8.145  0.1482  0.3171 -0.0765
    1W        W38760  19.108   9.974   8.706  0.2544  0.2239 -0.0687
    1W        W38761  19.619  23.605   2.978 -0.1019 -0.3005  0.1782
    1W        W38762  24.904   3.761   2.181 -0.1099 -0.0000 -0.0817
    1W        W38763  20.881  16.987   7.655  0.1304 -0.1587 -0.2549
    1W        W38764  27.103  20.177   2.104  0.0691  0.0372 -0.1984
    1W        W38765  13.654  29.128   2.706 -0.1608  0.0949 -0.2565
    1W        W38766  29.216  18.761   2.028 -0.2176  0.0236 -0.0943
    1W        W38767   3.832  27.177   2.167  0.1947  0.2929  0.0602
    1W        W38768   8.753  19.680   1.026  0.0127  0.3278  0.2648
    1W        W38769   0.625  11.090   1.823  0.0511  0.1229  0.0775
    1W        W38770   1.235  18.936   7.890 -0.1803 -0.2801 -0.1781
    1W        W38771   0.016  15.225   5.670  0.4044  0.1205 -0.3574
    1W        W38772  19.788   3.451   9.197  0.0393  0.3186  0.3061
    1W        W38773   4.866  15.254   9.383 -0.0162 -0.0172 -0.0374
    1W        W38774  28.893  27.086   2.776  0.0106  0.1156  0.1779
    1W        W38775  16.241  25.240   8.319 -0.3393 -0.1254  0.2466
    1W        W38776  28.425  24.423   7.794 -0.2190  0.2974 -0.0814
    1W        W38777  25.673  10.146   0.606 -0.1106 -0.0046 -0.0105
    1W        W38778  22.470  21.503   1.190  0.1423  0.0761 -0.3143
    1W        W38779  15.869   7.990   7.512  0.0198  0.0708  0.1961
    1W        W38780  17.449   9.915   2.614 -0.1404  0.0916  0.1321
    1W        W38781  19.084   9.735   9.173  0.0289 -0.0704  0.1167
    1W        W38782  28.329  12.555   8.047  0.0492 -0.1946  0.0460
    1W        W38783   6.767  28.633   3.446 -0.0226  0.0030  0.1693
    1W        W38784   3.845  23.178   0.335  0.1312  0.0146 -0.0828
    1W        W38785  10.635  26.531   7.741  0.0334 -0.0054  0.0225
    1W        W38786  20.548   1.265   2.619 -0.0450  0.2438  0.2500
    1W        W38787   4.127   3.618   8.885 -0.1353  0.2019  0.2208
    1W        W38788  13.908  22.454   1.378  0.2392  0.1744 -0.1790
    1W        W38789  28.186   1.114   0.003  0.0438  0.2515 -0.1221
    1W        W38790   7.641  12.662   8.986  0.3776  0.0507  0.1855
    1W        W38791  17.327  26.159   1.398  0.1083 -0.2953  0.1914
    1W        W38792  11.437  25.223   9.102  0.3902 -0.3632  0.1235
    1W        W38793   0.290  12.472   7.999 -0.1869  0.0290  0.2309
    1W        W38794   6.316   4.922   0.705 -0.1162 -0.1007  0.0886
    1W        W38795  14.219   8.150   8.185  0.0899  0.2424  0.3729
    1W        W38796   2.044   2.416   8.075  0.1782  0.2185 -0.0287
    1W        W38797  27.270   4.105   6.266  0.0162 -0.2567 -0.1420
    1W        W38798  19.308  14.961   7.482  0.0251 -0.1535  0.0147
    1W        W38799   8.092  27.902   7.976  0.0131 -0.1658 -0.2237
    1W        W38800   6.015  24.287   1.274  0.1016 -0.0109  0.1142
    1W        W38801   4.900  27.770   1.084 -0.0426 -0.3302 -0.0275
    1W        W38802  17.685  11.203   6.772 -0.3107  0.0969  0.0899
    1W        W38803  11.090  20.193   7.108  0.0434  0.1674 -0.2083
    1W        W38804  19.663  21.194   0.386 -0.1568 -0.1106  0.2394
    1W        W38805   3.018  22.722   0.356  0.0831 -0.3612  0.2367
    1W        W38806  28.842  26.123   9.208 -0.0980  0.3345  0.1999
    1W        W38807   9.433   3.114   4.005 -0.0171 -0.0462 -0.1086
    1W        W38808  19.162   2.268   1.934  0.1002  0.0468 -0.1966
    1W        W38809  15.545  17.151   1.787  0.0574  0.2290  0.0438
    1W        W38810  25.755  27.379   6.505 -0.0833 -0.0315  0.0542
    1W        W38811  15.072   1.084   7.917  0.0117  0.0219  0.0192
    1W        W38812   2.977  19.289   7.987 -0.0927 -0.1621 -0.0655
    1W        W38813  26.686  12.161   7.296  0.2020  0.1555  0.0815
    1W        W38814   6.534  22.062   6.149 -0.0107 -0.1467  0.1428
    1W        W38815  25.586  29.529   0.918 -0.0228 -0.0004  0.0307
    1W        W38816   9.347   3.674   9.254 -0.0508 -0.0051 -0.2680
    1W        W38817  12.707  25.599   2.833 -0.0375  0.2310  0.0861
    1W        W38818  22.662   3.453   2.186  0.4762  0.0059 -0.0514
    1W        W38819  21.870   9.606   0.549 -0.1224 -0.0563 -0.0084
    1W        W38820  22.720   2.734   3.445  0.0396 -0.1556  0.0036
    1W        W38821  10.450  18.059   8.341 -0.0127  0.3674 -0.0171
    1W        W38822  23.476  17.157   8.080  0.1603 -0.0262  0.1257
    1W        W38823  13.226  17.100   2.027 -0.3621 -0.2725 -0.0664
    1W        W38824  15.458  13.564   7.731  0.0734  0.0465 -0.2424
    1W        W38825  23.746  21.998   2.135 -0.0145 -0.1710 -0.0055
    1W        W38826  19.897  18.286   7.143  0.0093  0.3009  0.1031
    1W        W38827  10.255   5.591   2.993  0.1536  0.3515 -0.0295
    1W        W38828   2.053  23.554   8.544  0.0300 -0.0370  0.0372
    1W        W38829   3.766  27.318   0.317 -0.1505 -0.0677  0.0655
    1W        W38830  11.650  17.638   2.407 -0.2939  0.1401 -0.2104
    1W        W38831  17.657   8.430   7.363  0.0387 -0.0194 -0.1104
    1W        W38832   2.077  24.505   7.382 -0.1156  0.3518 -0.0050
    1W        W38833   0.958  26.004   0.752 -0.2424 -0.1591 -0.0075
    1W        W38834  23.016  18.387   0.005 -0.0239  0.0541 -0.1500
    1W        W38835  23.301  10.286   8.722  0.1726 -0.0547 -0.0819
    1W        W38836  19.794   7.161   2.752  0.0491  0.2907  0.2003
    1W        W38837  21.457  24.332   9.331  0.1692  0.2831  0.2065
    1W        W38838   5.411  12.706   0.615 -0.0348 -0.0149 -0.0969
    1W        W38839  21.794   1.335   0.143 -0.3172 -0.0650 -0.0673
    1W        W38840  14.618  18.044   8.050 -0.0895 -0.0286 -0.0095
    1W        W38841  25.708   4.135   1.494  0.0592 -0.0470 -0.1982
    1W        W38842  27.443  25.186   8.217 -0.2495  0.2790  0.2697
    1W        W38843   9.492   7.075   3.415 -0.0048  0.0685  0.2272
    1W        W38844  11.169   7.925   7.504 -0.0015  0.0212 -0.2310
    1W        W38845   8.555  16.381   8.577 -0.0444 -0.0708  0.1118
    1W        W38846   2.097   1.074   8.256  0.0436  0.2488  0.0753
    1W        W38847   2.994  25.398   7.900 -0.0660  0.1202  0.2447
    1W        W38848  28.078  23.857   2.342  0.4663 -0.0328  0.2174
    1W        W38849   0.082  27.162   0.856 -0.2992  0.1844  0.0928
    1W        W38850  12.493  24.031   9.176  0.1299 -0.1179  0.2327
    1W        W38851   1.164  21.656   8.111  0.2596  0.1696  0.2309
    1W        W38852   4.404  12.446   0.264 -0.0174 -0.0764  0.1777
    1W        W38853   5.174  15.443   6.234 -0.1839 -0.0742  0.2629
    1W        W38854  20.138  24.695   0.728 -0.1790  0.1417 -0.0988
    1W        W38855  20.623  13.931   8.479  0.2247 -0.0660 -0.1150
    1W        W38856   5.856   6.600   8.830  0.0934  0.0180  0.3583
    1W        W38857  11.316   1.015   6.980 -0.2524 -0.0419 -0.0266
    1W        W38858   5.845  10.484   2.671 -0.4129  0.2755 -0.0944
    1W        W38859  11.697  10.110   1.762 -0.0905  0.0417  0.0584
    1W        W38860  17.691  27.676   6.964 -0.1961 -0.0002  0.0719
    1W        W38861   1.067  15.516   7.729  0.0030 -0.2256  0.0355
    1W        W38862  14.467  23.126   2.155  0.1515  0.0001  0.1843
    1W        W38863  12.476  19.533   7.618  0.0990 -0.1128  0.0025
    1W        W38864   9.081  19.347   1.220  0.1312  0.2872 -0.0747
    1W        W38865  25.146   6.095   1.292 -0.0150 -0.0088  0.1077
    1W        W38866  13.028   1.243   1.480 -0.0392 -0.0553 -0.4725
    1W        W38867  28.418  18.075   0.607 -0.0353 -0.1606  0.0868
    1W        W38868   2.196  10.431   6.519  0.1687  0.1932 -0.0491
    1W        W38869   0.432  26.149   9.181  0.0457  0.3220 -0.1455
    1W        W38870  13.729   7.930   7.495  0.1402 -0.1583  0.2240
    1W        W38871  27.000  24.941   6.962  0.2508  0.1935  0.2200
    1W        W38872  16.234  27.795   7.892  0.3804 -0.2345 -0.4246
    1W        W38873  24.508   1.436   8.677 -0.1503  0.0044 -0.1166
    1W        W38874   6.024  24.325   6.632 -0.1346  0.1705  0.1314
    1W        W38875  20.488  17.827   8.632 -0.0445  0.0922  0.1676
    1W        W38876  22.656   1.211   1.053  0.0338 -0.2564 -0.0279
    1W        W38877  12.566   2.850   3.374 -0.0086 -0.3788  0.0064
    1W        W38878  12.669   8.680   7.991  0.1439  0.0108 -0.0057
    1W        W38879   1.014  14.560   5.950  0.0350 -0.0241  0.0020
    1W        W38880  23.251   7.627   7.051 -0.2383 -0.1748  0.1950
    1W        W38881   9.583  12.326   7.863 -0.2369  0.1936  0.2987
    1W        W38882   3.939   2.355   0.535  0.0489  0.1606 -0.1154
    1W        W38883  26.550  17.286   7.524  0.0119 -0.3847  0.0044
    1W        W38884  25.887  11.462   6.570 -0.0774 -0.0784 -0.2377
    1W        W38885   9.752   1.156   2.623 -0.0024  0.1965  0.1157
    1W        W38886  15.170  29.771   1.369 -0.1432 -0.2570  0.0392
    1W        W38887  14.113  26.029   1.194 -0.0516 -0.0707  0.0080
    1W        W38888  25.301  25.352   0.007  0.1963 -0.0056  0.0009
    1W        W38889  28.741  13.669   6.577  0.1085 -0.0687 -0.3608
    1W        W38890  19.566  27.280   8.159  0.0138 -0.0770 -0.1114
    1W        W38891  21.580   4.803   0.140 -0.0378  0.1406 -0.1883
    1W        W38892  27.472   9.943   7.949 -0.0114 -0.0079 -0.1849
    1W        W38893  13.787  20.081   2.265  0.0572  0.0805  0.0574
    1W        W38894   9.588   2.512   2.673 -0.2374 -0.0438  0.1893
    1W        W38895   2.676   3.793   8.765  0.1135  0.1178  0.1919
    1W        W38896  24.559   4.548   1.000 -0.0080 -0.0506  0.4194
    1W        W38897  11.289   2.556   7.806 -0.0008 -0.0996 -0.0610
    1W        W38898  18.246  21.876   8.797  0.0881 -0.1070  0.0664
    1W        W38899  12.580  10.361   7.549  0.0500  0.2964 -0.0204
    1W        W38900  20.711  27.298   0.824 -0.0973  0.2934  0.0791
    1W        W38901   0.877  25.325   6.471 -0.2453  0.1403 -0.2646
    1W        W38902  20.137  26.189   1.865  0.3934  0.2943  0.1056
    1W        W38903  13.214  18.657   8.263  0.2591 -0.1284 -0.0815
    1W        W38904  17.574  18.101   2.477  0.1175 -0.0037  0.3861
    1W        W38905  27.679   7.311   0.572 -0.1208  0.0954  0.1272
    1W        W38906   4.689  25.890   1.206 -0.0372 -0.0028  0.0039
    1W        W38907   1.839   2.630   1.001  0.1719  0.1564 -0.1480
    1W        W38908   9.126   2.756   2.664  0.0644 -0.1266 -0.0183
    1W        W38909  13.260  14.699   7.438  0.0591 -0.0541  0.1417
    1W        W38910  21.947   7.840   0.009  0.3068  0.1821  0.3450
    1W        W38911  10.380  11.668   2.464 -0.1607 -0.0950 -0.2226
    1W        W38912  20.071  13.782   1.116 -0.0616 -0.1224 -0.0028
    1W        W38913  13.269   3.766   7.841  0.0399  0.0158  0.0749
    1W        W38914  25.302   7.090   0.793  0.0021  0.0595  0.0407
    1W        W38915  16.184  19.490   0.815  0.0737 -0.2602  0.1805
    1W        W38916  11.273  12.529   2.011  0.1640 -0.0014 -0.0317
    1W        W38917  14.577  12.827   9.195  0.5077  0.1167 -0.1370
    1W        W38918  16.452  18.661   9.162  0.1011  0.0819 -0.3891
    1W        W38919   4.031  13.498   7.807 -0.1063 -0.1755 -0.0490
    1W        W38920   0.289  22.528   9.330 -0.1830  0.2623  0.3754
    1W        W38921  19.625  24.330   7.296 -0.1905  0.0053 -0.1860
    1W        W38922  20.612   9.337   7.159 -0.1241  0.0421  0.2262
    1W        W38923   8.853   4.834   2.613  0.2348 -0.0089  0.0311
    1W        W38924  25.008  11.442   8.450 -0.1095  0.0033 -0.0723
    1W        W38925  20.879  21.047   1.231 -0.0107 -0.1846  0.1550
    1W        W38926  12.734  23.098   9.027  0.0320 -0.0274  0.0940
    1W        W38927  28.762  29.789   2.187  0.0792  0.1674  0.0736
    1W        W38928   6.844   7.933   1.166 -0.1878  0.2836  0.0210
    1W        W38929   6.840  11.579   2.403  0.0450 -0.1579  0.0379
    1W        W38930  23.055   4.016   7.044 -0.2166 -0.0232 -0.1502
    1W        W38931   7.059  12.319   6.713  0.3114 -0.1955  0.2558
    1W        W38932   9.907  19.107   6.862 -0.0886  0.0458 -0.1738
    1W        W38933  18.877   6.640   8.448 -0.0363 -0.1373  0.2305
    1W        W38934   4.120  25.029   8.951  0.1350 -0.0617 -0.0769
    1W        W38935  13.958  19.432   8.544  0.1693  0.1716 -0.0047
    1W        W38936  15.755  27.669   3.517 -0.0254  0.1650 -0.2015
    1W        W38937  13.153   5.394   0.260 -0.2531 -0.1997  0.0938
    1W        W38938  26.001  16.972   0.548  0.1204 -0.0149 -0.1494
    1W        W38939  28.617  16.885   7.961 -0.0824 -0.0390 -0.0979
    1W        W38940   1.828  11.543   2.555 -0.3731  0.1784 -0.1388
    1W        W38941  12.178   0.887   2.026  0.2592 -0.1216  0.1019
    1W        W38942   9.159  23.048   7.781  0.0687 -0.0125 -0.1634
    1W        W38943   1.114  10.984   2.232 -0.0077  0.2694 -0.1531
    1W        W38944   8.670   6.205   2.681 -0.0976  0.0910 -0.4414
    1W        W38945  14.577  22.040   1.720 -0.0664 -0.0599  0.1577
    1W        W38946  26.420   6.359   0.174  0.1642 -0.0985  0.1157
    1W        W38947  18.995   2.793   1.006 -0.0479 -0.0126  0.1879
    1W        W38948  10.345   9.715   1.676  0.2039  0.0664  0.1616
    1W        W38949  17.392  29.032   2.839 -0.0055 -0.0672  0.0568
    1W        W38950   2.916  18.923   1.798 -0.1258 -0.0924 -0.0447
    1W        W38951  22.351   3.528   0.008 -0.0206  0.0408 -0.2032
    1W        W38952   5.902   3.753   1.089 -0.0307 -0.2096  0.1469
    1W        W38953  18.840   0.854   1.895  0.0177 -0.3362  0.1361
    1W        W38954  28.238  18.898   2.090  0.0510 -0.2887  0.2068
    1W        W38955   2.416  16.535   1.552 -0.1456 -0.0039  0.2685
    1W        W38956   2.417  23.872   5.945 -0.0707 -0.1022  0.1642
    1W        W38957  13.702  18.170   9.248 -0.1465 -0.2396 -0.2680
    1W        W38958   0.595  14.632   7.448 -0.0609 -0.0412  0.0641
    1W        W38959  12.996  23.284   6.778  0.2511 -0.2204 -0.1910
    1W        W38960  11.781  12.443   9.364 -0.2016  0.2170  0.0099
    1W        W38961  27.147  21.391   6.927  0.1149  0.1246  0.0061
    1W        W38962  17.809  27.200   0.773 -0.1825  0.0541  0.1988
    1W        W38963  18.354  16.830   0.372 -0.0730 -0.0110  0.1286
    1W        W38964   7.639  11.442   3.541  0.0517 -0.0115  0.1416
    1W        W38965  18.856   4.224   7.105 -0.0518 -0.0795 -0.0359
    1W        W38966   8.367   2.181   0.994  0.0214  0.0240 -0.1930
    1W        W38967   1.298  24.589   1.268  0.1438  0.1608 -0.0479
    1W        W38968  25.942  23.524   2.179  0.0933 -0.0412  0.1807
    1W        W38969  29.405   7.475   6.306  0.2237  0.1112  0.1790
    1W        W38970  28.021  14.156   7.595 -0.2891 -0.0755 -0.0320
    1W        W38971   5.309  17.053   9.375 -0.3105  0.1352  0.0175
    1W        W38972  28.151   8.696   2.088  0.3232 -0.1712 -0.4251
    1W        W38973  13.086  24.852   2.321  0.0407  0.0858  0.0172
    1W        W38974  23.814  28.809   9.047  0.0203  0.1763  0.0490
    1W        W38975  10.217  21.027   7.571 -0.1767  0.0969 -0.1243
    1W        W38976   1.325  14.548   7.067 -0.1011 -0.1571 -0.0961
    1W        W38977  23.066  22.628   2.145  0.1302  0.4797  0.2641
    1W        W38978  28.053  15.803   1.193 -0.2470 -0.2937  0.3074
    1W        W38979  21.456  18.772   1.516 -0.2265  0.1454 -0.1538
    1W        W38980  10.536  12.447   7.981 -0.1908 -0.0394 -0.0142
    1W        W38981  14.279  28.426   8.972 -0.1008 -0.1509  0.1318
    1W        W38982   6.923  29.342   0.900 -0.2482  0.1469  0.0384
    1W        W38983  17.073   6.104   2.367  0.1536  0.0196  0.0621
    1W        W38984   0.325   2.548   1.427 -0.1951  0.2993  0.2332
    1W        W38985  21.002  16.556   8.785 -0.1578 -0.1328 -0.0395
    1W        W38986  20.766  28.075   8.099 -0.0671  0.0209 -0.0626
    1W        W38987   4.598  24.023   9.066  0.0268  0.2317 -0.1238
    1W        W38988  24.841  14.356   1.382  0.1734  0.1532  0.2643
    1W        W38989  11.117   6.931   8.486  0.4077 -0.0763 -0.1762
    1W        W38990  25.314   4.161   2.325  0.3156  0.1278 -0.1155
    1W        W38991  16.942  11.789   0.793  0.1845  0.0637 -0.3972
    1W        W38992   7.159   6.762   7.602  0.0250 -0.0352 -0.0386
    1W        W38993  14.937  20.436   6.707 -0.1986  0.1152  0.0152
    1W        W38994   4.339   9.698   7.040 -0.0292 -0.2450  0.0775
    1W        W38995  17.126   3.805   6.421  0.2035 -0.4749 -0.2753
    1W        W38996   5.848  23.501   8.918  0.1678  0.0101  0.4537
    1W        W38997  10.087  20.664   8.505 -0.1006 -0.2642  0.3076
    1W        W38998   9.205   6.793   0.143  0.1796  0.1216 -0.3609
    1W        W38999   7.666   1.729   7.729  0.0679 -0.0995 -0.0635
    1W        W39000   3.327   9.908   0.294  0.4207  0.3686  0.1855
    1W        W39001   2.701  11.842   1.386  0.0415 -0.1153 -0.0664
    1W        W39002  15.654  26.801   0.671  0.0133  0.2024 -0.2286
    1W        W39003  24.806  12.920   0.895  0.2159  0.1648 -0.4249
    1W        W39004   2.776  19.050   6.284  0.1407  0.1328  0.0459
    1W        W39005  28.978  21.524   6.986  0.2262 -0.3211 -0.1011
    1W        W39006  19.310  21.068   2.025 -0.2653 -0.0129 -0.0317
    1W        W39007  25.036  10.132   1.896  0.1418 -0.0505  0.1231
    1W        W39008   9.263   5.546   7.760 -0.0742 -0.2357  0.0767
    1W        W39009  16.761  15.383   8.623  0.4354  0.2843  0.0695
    1W        W39010  20.286  15.435   0.539  0.1511  0.1883 -0.1637
    1W        W39011  14.603  28.165   1.489 -0.0360  0.0745 -0.1076
    1W        W39012   2.576   7.344   9.086 -0.1613  0.2175  0.0076
    1W        W39013  22.646   6.487   1.572 -0.3024 -0.2560  0.1066
    1W        W39014  18.573  13.748   8.314  0.0659  0.0494  0.0171
    1W        W39015  18.425  12.352   8.819  0.0712 -0.1150 -0.1419
    1W        W39016   7.090  18.930   1.292  0.1461  0.2897  0.0389
    1W        W39017  11.571  15.064   1.750 -0.0588 -0.3513 -0.0789
    1W        W39018   8.447   1.006   2.364 -0.0176  0.3198  0.0710
    1W        W39019  29.267  25.523   2.749 -0.1371  0.0218 -0.1303
    1W        W39020   3.864  26.494   7.081  0.0807 -0.1065 -0.2185
    1W        W39021  15.543   5.647   8.770 -0.2582  0.0558 -0.1024
    1W        W39022  17.393  12.294   1.995  0.0303  0.1137 -0.1569
    1W        W39023  13.848  27.637   8.086 -0.1138 -0.0379  0.2679
    1W        W39024  19.212  17.384   8.685 -0.1478 -0.0208 -0.3624
    1W        W39025  25.525  22.912   7.252 -0.0844 -0.0564 -0.0291
    1W        W39026  14.534   6.502   8.648 -0.1944  0.1601 -0.2074
    1W        W39027   6.647   0.271   7.925  0.2624 -0.1557  0.0217
    1W        W39028  25.055   3.899   8.985 -0.1803  0.0140  0.0627
    1W        W39029   9.191  10.478   0.646 -0.0237  0.0824 -0.0153
    1W        W39030  15.913  23.232   1.710  0.2945 -0.1412 -0.0408
    1W        W39031   7.065  20.328   9.128  0.0119 -0.1871  0.0938
    1W        W39032   0.850  15.420   7.109 -0.2207  0.0700  0.2199
    1W        W39033  11.420  17.801   7.180  0.0416 -0.0305 -0.0718
    1W        W39034  24.904  14.973   7.598 -0.2582  0.0144  0.0131
    1W        W39035   0.823   6.056   2.448 -0.0971 -0.0665  0.1060
    1W        W39036   1.887  25.263   8.685  0.1580  0.0329 -0.1435
    1W        W39037   6.257  24.286   0.007 -0.0756  0.0560  0.1714
    1W        W39038   2.578  16.622   7.299  0.0392 -0.1084 -0.1428
    1W        W39039   2.455  17.582   9.013 -0.1101  0.0010 -0.1763
    1W        W39040   4.011   6.576   7.427 -0.1661 -0.0745  0.0770
    1W        W39041  25.505  18.905   1.653 -0.2296 -0.0609 -0.1147
    1W        W39042   9.645  22.697   2.090 -0.0869 -0.2478 -0.2877
    1W        W39043   1.765   8.493   8.862  0.1189  0.4312  0.2584
    1W        W39044   2.020   0.347   2.547 -0.3144 -0.0679 -0.1818
    1W        W39045  26.626  17.266   1.634 -0.0759  0.1090 -0.0805
    1W        W39046  22.024   5.244   7.374  0.0874 -0.0979  0.0255
    1W        W39047  23.195   0.055   7.392  0.3220 -0.0962  0.1613
    1W        W39048  29.608  19.624   6.760 -0.1497  0.1709 -0.0366
    1W        W39049  11.083  26.882   8.450 -0.4663 -0.2536 -0.0005
    1W        W39050   1.054  12.832   7.107 -0.0474 -0.4541  0.0319
    1W        W39051  27.978   0.472   2.334 -0.1704  0.0227  0.1594
    1W        W39052  12.442  25.240   9.112 -0.0921 -0.3311 -0.2020
    1W        W39053   2.480  20.508   6.573 -0.2516 -0.0248  0.0443
    1W        W39054  23.041  15.732   1.238 -0.0623 -0.0906  0.1442
    1W        W39055  28.822  26.381   0.232 -0.1492 -0.0295 -0.0651
    1W        W39056  22.719  21.362   7.965 -0.2818 -0.0631  0.0037
    1W        W39057  14.843   0.801   8.629 -0.2488  0.0264 -0.3347
    1W        W39058   6.692  26.165   9.249  0.3479  0.1602 -0.2180
    1W        W39059  28.152  10.781   9.193 -0.1390  0.2429  0.2919
    1W        W39060  14.410   3.176   2.130  0.1288  0.1510 -0.3246
    1W        W39061  26.078  11.405   1.611  0.1576  0.1400 -0.0250
    1W        W39062  22.810  14.415   9.455 -0.2299 -0.0109 -0.0422
    1W        W39063  23.544  27.296   2.710 -0.0363  0.3634 -0.0285
    1W        W39064   7.335  13.395   1.816 -0.0404  0.3863  0.2084
    1W        W39065  21.497  21.795   2.723 -0.0960  0.0143  0.1209
    1W        W39066   8.000  27.221   8.442  0.0616 -0.0793  0.1189
    1W        W39067   8.635  16.236   7.292 -0.0139  0.2713  0.1521
    1W        W39068  18.578   6.540   7.449  0.0457  0.0139 -0.0759
    1W        W39069  12.265  20.814   8.932 -0.1746 -0.2740  0.1120
    1W        W39070   1.206   5.236   2.320  0.1778  0.1958  0.3005
    1W        W39071  29.665   0.815   6.406  0.1769 -0.0404 -0.1571
    1W        W39072  11.988   2.578   1.209 -0.1716 -0.1521 -0.2798
    1W        W39073  17.795  18.183   7.666 -0.3938 -0.1374  0.0733
    1W        W39074   8.376   3.397   0.291 -0.0999  0.2849  0.1177
    1W        W39075   2.943   5.496   8.361  0.0034  0.1522  0.0101
    1W        W39076  15.798  22.806   0.211  0.2632  0.0891 -0.2939
    1W        W39077  10.028  24.691   7.160  0.0578  0.0572  0.1120
    1W        W39078  23.227   9.068   2.228  0.1173  0.0904 -0.0425
    1W        W39079   2.064   9.908   6.567  0.0310 -0.1062  0.0760
    1W        W39080   4.900  11.286   7.104  0.2577 -0.1380 -0.1011
    1W        W39081  22.427   1.411   2.673 -0.0552 -0.2645  0.1702
    1W        W39082  29.373   8.004   2.000  0.2724 -0.3051  0.1404
    1W        W39083   7.864  17.307   1.687  0.0958 -0.5097 -0.0242
    1W        W39084  13.727  16.004   7.187  0.2807  0.0540  0.2429
    1W        W39085  11.436  16.778   0.953  0.0852 -0.0524 -0.1467
    1W        W39086  21.462   7.651   0.692  0.1238 -0.3083  0.2310
    1W        W39087  28.573   1.018   7.161  0.1657  0.1020  0.0505
    1W        W39088  28.240  17.621   0.327 -0.3168  0.1067 -0.0517
    1W        W39089   8.599  12.156   1.363  0.1753  0.0291  0.1301
    1W        W39090  14.938   4.631   8.385 -0.2284 -0.1181  0.1825
    1W        W39091  24.910   1.056   7.686 -0.1054 -0.2368 -0.0069
    1W        W39092   9.110  28.256   0.180 -0.1581 -0.3902 -0.0504
    1W        W39093   8.699  28.659   0.003 -0.0888 -0.0899  0.1683
    1W        W39094  15.077  26.742   7.275  0.1335  0.1887 -0.2361
    1W        W39095  12.313   9.430   8.278 -0.0989  0.1554 -0.1972
    1W        W39096  26.622  19.982   8.271  0.0849 -0.1760 -0.0875
    1W        W39097  13.396   9.953   2.105 -0.2522  0.0523 -0.0416
    1W        W39098  27.280   3.542   2.257 -0.0309 -0.0716 -0.0764
    1W        W39099   4.453  12.452   1.674 -0.1262 -0.0461  0.0702
    1W        W39100  21.086  18.703   2.404 -0.0486  0.1089 -0.1354
    1W        W39101   7.666  19.848   5.598 -0.4479  0.2868  0.0523
    1W        W39102   7.011  20.071   0.679  0.0987  0.0834 -0.1580
    1W        W39103   0.617  17.224   8.001  0.1033  0.0681  0.2053
    1W        W39104  11.541   8.345   8.193  0.2563 -0.0968 -0.0113
    1W        W39105   3.371  19.831   8.789  0.0707  0.1872 -0.1638
    1W        W39106   2.956  21.430   0.250  0.3601 -0.1540 -0.0836
    1W        W39107   7.353  24.507   0.505 -0.1818 -0.0788 -0.4246
    1W        W39108  21.105  10.214   1.466 -0.4023 -0.1696 -0.2153
    1W        W39109   5.358  23.263   0.305  0.0945  0.0673  0.0578
    1W        W39110  10.015  18.966   9.255 -0.0154  0.1937 -0.0591
    1W        W39111  15.510  11.573   8.936 -0.0171 -0.1210  0.1672
    1W        W39112  23.503  22.360   8.338 -0.3110 -0.0174  0.1280
    1W        W39113  21.113  22.578   8.363  0.1788 -0.1087 -0.1073
    1W        W39114   1.539  16.784   1.439 -0.0030 -0.0332 -0.1771
    1W        W39115  13.335   3.752   0.190  0.0379 -0.1645  0.1126
    1W        W39116  26.446   4.329   3.381 -0.1793  0.1920  0.1256
    1W        W39117  18.467   5.705   9.408 -0.1179  0.0099 -0.0054
    1W        W39118   1.220  19.852   8.389  0.2471 -0.0436  0.0218
    1W        W39119   1.064   4.641   1.508  0.0601 -0.4012  0.1463
    1W        W39120  17.565  13.550   1.176 -0.0380  0.0186  0.0734
    1W        W39121  26.918  27.227   1.304  0.2592  0.1598 -0.0486
    1W        W39122  18.076  18.882   1.781 -0.0971  0.0007  0.2666
    1W        W39123  17.812  17.293   1.573 -0.2368  0.2022 -0.2991
    1W        W39124  27.724  20.429   0.039  0.0058  0.1565  0.0173
    1W        W39125  15.350  10.964   8.617 -0.0825 -0.2802  0.0287
    1W        W39126   1.302   8.307   8.051 -0.0614 -0.1424  0.3169
    1W        W39127   9.204  11.137   8.018 -0.2387 -0.0873 -0.2497
    1W        W39128   5.406   7.524   2.435  0.1344  0.1660  0.0504
    1W        W39129  18.336   6.070   0.413  0.0591  0.0452  0.0063
    1W        W39130  15.968  13.019   7.264 -0.0617 -0.1645  0.0453
    1W        W39131   7.349  29.485   8.053  0.1682 -0.0208  0.0520
    1W        W39132   4.134   5.741   2.626 -0.2084  0.0510  0.0161
    1W        W39133  11.397  19.596   9.108  0.1227 -0.3709  0.1223
    1W        W39134   8.386  20.333   7.670 -0.0717  0.2933 -0.4966
    1W        W39135  21.489  27.078   3.598 -0.1141 -0.1129  0.5453
    1W        W39136   3.541  10.423   2.094  0.0487  0.1361  0.1454
    1W        W39137  29.798  26.718   9.022 -0.1515 -0.0349  0.2239
    1W        W39138  19.717  14.045   1.444 -0.0060 -0.4272  0.1608
    1W        W39139  23.792   5.958   9.150 -0.2114  0.0166  0.0684
    1W        W39140   0.204   9.113   6.845  0.1083  0.3609  0.0748
    1W        W39141  20.785  25.511   9.286 -0.0571  0.1225 -0.0106
    1W        W39142   5.745  26.725   1.699  0.0854  0.0177  0.1543
    1W        W39143   7.188  14.992   1.869  0.0526 -0.1406 -0.0027
    1W        W39144   0.542   0.850   1.895 -0.3250  0.0769 -0.2117
    1W        W39145  13.570  26.519   7.174 -0.2540 -0.2400 -0.1627
    1W        W39146  25.465  18.676   7.178 -0.2424 -0.0364  0.1843
    1W        W39147   7.619  13.844   1.980  0.0842 -0.0996  0.3333
    1W        W39148  15.200  14.669   9.279 -0.0247  0.1399  0.2860
    1W        W39149   5.412  27.837   1.394 -0.2167  0.2894 -0.1740
    1W        W39150   4.511  15.278   0.415  0.0244 -0.0189  0.1089
    1W        W39151  15.430  12.631   1.159  0.0803  0.1888 -0.1680
    1W        W39152   7.122  20.010   6.005 -0.2157 -0.1255 -0.0216
    1W        W39153  19.627  24.910   8.880  0.0299  0.0836 -0.2009
    1W        W39154   2.920  20.548   7.296 -0.1690  0.2480  0.0256
    1W        W39155  25.403  29.617   7.938 -0.0519 -0.0121 -0.1474
    1W        W39156  20.866  17.539   0.149 -0.1023 -0.0522  0.0449
    1W        W39157   1.755  20.243   0.620 -0.0104 -0.1696  0.1312
    1W        W39158   0.834   5.938   1.959 -0.1030  0.1670  0.0129
    1W        W39159   4.459  20.071   7.237  0.4213  0.0496 -0.0002
    1W        W39160  16.697  14.099   0.928 -0.1709  0.0089 -0.0540
    1W        W39161   2.179  29.364   1.171  0.1530  0.2109  0.0654
    1W        W39162  16.140  16.435   8.553 -0.1519 -0.0243 -0.2146
    1W        W39163  22.791   1.389   1.525  0.3519 -0.0088 -0.1150
    1W        W39164   3.636  11.988   0.130  0.0995  0.0476  0.2840
    1W        W39165  20.989   3.177   7.763  0.3127 -0.0148 -0.1408
    1W        W39166   6.252   3.365   1.223  0.0882  0.0258 -0.3095
    1W        W39167   5.193  19.258   1.566  0.2185  0.0079 -0.2188
    1W        W39168   2.702  17.686   0.480 -0.1062  0.1606 -0.0214
    1W        W39169  26.953  18.031   5.932 -0.1894  0.1599  0.1604
    1W        W39170   8.330  24.272   6.653 -0.0080  0.0560 -0.3628
    1W        W39171  20.371   2.376   1.318 -0.0237 -0.2518  0.0148
    1W        W39172  24.725  21.426   3.535 -0.1076 -0.0838  0.2582
    1W        W39173  14.740   8.874   8.308 -0.0540  0.0525  0.2878
    1W        W39174  23.400   7.556   2.230  0.1846 -0.1989 -0.0119
    1W        W39175   9.048   2.658   1.002 -0.0358 -0.2032 -0.0172
    1W        W39176  13.912  10.032   8.144  0.0060 -0.1645 -0.1388
    1W        W39177  17.474   0.107   9.008  0.0311  0.1248  0.0395
    1W        W39178   8.159  13.637   8.203 -0.1828  0.2966  0.3840
    1W        W39179  22.314  25.682   2.147 -0.0353 -0.4279 -0.0585
    1W        W39180   8.231  18.456   1.490 -0.2889 -0.0714  0.1785
    1W        W39181  23.051   6.683   1.394  0.0904  0.0750  0.2266
    1W        W39182  21.607   5.931   7.228 -0.2625 -0.0649  0.1371
    1W        W39183  28.026   3.881   8.018 -0.2845 -0.2772 -0.0079
    1W        W39184  14.401  12.155   9.360 -0.1479  0.3514  0.1496
    1W        W39185  14.410  18.633   7.224  0.0567 -0.0963  0.1849
    1W        W39186  28.611   7.390   1.714  0.0206 -0.0138 -0.2246
    1W        W39187  24.603   1.585   0.178 -0.3568  0.0865  0.0396
    1W        W39188   0.167  19.433   7.161  0.0688  0.1156 -0.0976
    1W        W39189  14.858   5.596   3.451  0.1490 -0.1015  0.5203
    1W        W39190  18.859   4.730   8.455 -0.2004  0.2156 -0.1104
    1W        W39191  18.601  12.189   7.911 -0.0635 -0.2102  0.0009
    1W        W39192  26.491   8.436   7.931  0.0356  0.3850  0.0100
    1W        W39193  16.512  20.671   9.362  0.0068 -0.0800  0.0687
    1W        W39194  28.517  12.941   1.950 -0.0702 -0.2791 -0.2793
    1W        W39195   1.788   9.707   1.371  0.0556  0.1202 -0.0681
    1W        W39196  13.522  11.299   8.887  0.0362 -0.1146 -0.0115
    1W        W39197   6.100  14.274   2.792 -0.0272 -0.0012 -0.0948
    1W        W39198  24.289  25.046   2.243  0.1037  0.0812  0.0509
    1W        W39199  22.490  28.463   0.722 -0.2332  0.0168  0.2268
    1W        W39200  10.400  12.598   2.001 -0.0421 -0.0758 -0.1629
    1W        W39201  17.595   9.656   8.679  0.2217  0.0633  0.4654
    1W        W39202  11.421  16.177   7.992 -0.1772 -0.1212 -0.1770
    1W        W39203   1.152  28.924   7.941 -0.2223 -0.3426 -0.0225
    1W        W39204  15.355  26.851   8.701 -0.0548  0.0855  0.3689
    1W        W39205  20.857   0.587   1.106 -0.1068 -0.0731  0.0488
    1W        W39206  11.760  13.163   1.553 -0.0109 -0.2550  0.0417
    1W        W39207  28.500  22.977   7.547 -0.2945 -0.1784  0.0239
    1W        W39208  28.231   5.004   1.449 -0.1213 -0.1743 -0.2753
    1W        W39209   4.836  19.984   1.321 -0.1090  0.1336  0.0679
    1W        W39210  23.108  19.528   8.578 -0.0450 -0.0036  0.0455
    1W        W39211   8.711  19.847   0.560 -0.3118 -0.0549  0.0476
    1W        W39212  25.520  28.802   7.311  0.1472 -0.0248 -0.0868
    1W        W39213  26.829  13.315   6.733 -0.2680 -0.2291  0.1327
    1W        W39214   5.705   6.591   2.512 -0.0658  0.3465  0.0265
    1W        W39215   2.831  15.638   7.547 -0.0723 -0.0361 -0.1137
    1W        W39216  19.273   6.569   8.759  0.1345 -0.2970 -0.3677
    1W        W39217  22.067  24.489   2.641 -0.0306  0.1328  0.0331
    1W        W39218   5.292   6.870   1.234 -0.4188  0.1692 -0.0565
    1W        W39219  26.961  22.904   7.394  0.1110  0.2419 -0.3614
    1W        W39220   3.767  21.408   9.213  0.1721  0.1867 -0.1598
    1W        W39221  19.402  28.946   1.587 -0.1251 -0.3709 -0.3697
    1W        W39222   6.642   1.465   8.507 -0.1603  0.1176  0.0364
    1W        W39223  21.675   3.740   8.903 -0.0006 -0.3335  0.2840
    1W        W39224  22.796  20.444   7.808  0.0761 -0.0423  0.4126
    1W        W39225  11.222   6.691   3.244 -0.2684 -0.2841 -0.2520
    1W        W39226   7.994  28.183   1.382 -0.2236 -0.3192 -0.0113
    1W        W39227  12.453  23.857   7.907  0.0656  0.1243 -0.2557
    1W        W39228  17.253  25.334   8.159 -0.0983  0.0865 -0.1514
    1W        W39229  22.754  19.591   8.108 -0.1101  0.1687  0.0870
    1W        W39230  15.858  28.096   8.031  0.1126  0.4029  0.1810
    1W        W39231  16.619  27.055   0.672 -0.1478  0.1784 -0.1144
    1W        W39232  12.451  24.458   7.746  0.1681  0.0344  0.2373
    1W        W39233   2.583  28.098   1.708 -0.2736  0.0916 -0.1322
    1W        W39234   3.342  27.568   7.704 -0.0083  0.0523 -0.3001
    1W        W39235  25.191  17.031   0.932  0.0820  0.3324  0.1602
    1W        W39236  12.521   8.130   7.864  0.2618  0.0276 -0.0889
    1W        W39237  12.406  15.359   1.167 -0.3836  0.1074 -0.0049
    1W        W39238  23.625   3.626   1.456 -0.5234 -0.2427  0.1811
    1W        W39239  19.810  23.442   7.247 -0.1163 -0.0765 -0.2221
    1W        W39240  25.968   1.268   0.206  0.3149  0.0259  0.2186
    1W        W39241  23.302  19.816   3.296  0.0792  0.0554 -0.1398
    1W        W39242  23.324  18.655   0.815  0.1269  0.2052  0.5743
    1W        W39243   4.662   9.291   0.766  0.1139  0.1988 -0.0476
    1W        W39244  20.170   2.120   1.748  0.2039 -0.1844  0.2329
    1W        W39245  16.504  13.579   0.669  0.3091  0.1262  0.2172
    1W        W39246   3.883   1.357   3.303  0.1582  0.1257  0.1543
    1W        W39247  21.338  22.201   8.067 -0.0773  0.1206  0.0588
    1W        W39248  28.017  28.142   8.084 -0.0493  0.0276 -0.0059
    1W        W39249   5.316  29.277   2.618 -0.3017  0.1495  0.2587
    1W        W39250   4.801   5.927   9.402 -0.2931  0.0524  0.2405
    1W        W39251   5.457  11.662   1.302  0.1161 -0.1108  0.2797
    1W        W39252  15.907  19.968   7.313 -0.0535 -0.0302  0.3181
    1W        W39253   2.624  28.940   2.336  0.0638 -0.0099 -0.0455
    1W        W39254   4.347  11.929   7.667 -0.0104 -0.0709  0.1535
    1W        W39255   8.212  15.621   0.975  0.2096  0.3229 -0.0034
    1W        W39256  27.229  25.181   1.446  0.0941  0.2561 -0.0600
    1W        W39257  25.904  21.132   8.735 -0.1747 -0.2448  0.1207
    1W        W39258   0.943  28.698   8.348 -0.1071 -0.4128  0.2957
    1W        W39259  28.373  17.946   6.927  0.1942 -0.2317 -0.3123
    1W        W39260   7.803  21.370   0.571  0.0375 -0.5693  0.0391
    1W        W39261  29.454   5.890   0.974 -0.1480  0.0549 -0.2088
    1W        W39262   5.387   3.429   7.584 -0.2739 -0.0742 -0.0278
    1W        W39263  17.704  18.575   0.788  0.0296  0.1295 -0.0185
    1W        W39264  25.368   4.396   7.838  0.4262 -0.3606  0.1000
    1W        W39265   4.524   4.934   8.313 -0.0617  0.1467  0.2602
    1W        W39266   2.563  10.390   7.630  0.2007  0.0112  0.2196
    1W        W39267   0.410  27.406   7.164 -0.0992  0.0152 -0.2423
    1W        W39268   6.452   5.538   3.341 -0.0888 -0.0601 -0.1670
    1W        W39269  16.102   1.468   0.279 -0.1483  0.0729 -0.0519
    1W        W39270   1.432  28.378   1.568  0.0854 -0.1746  0.0383
    1W        W39271  25.822  15.327   7.609 -0.0269 -0.1326 -0.1747
    1W        W39272  12.016  14.504   1.231  0.0194 -0.1047  0.1768
    1W        W39273  13.904  26.241   2.392 -0.0801  0.2472 -0.2206
    1W        W39274   4.684   6.326   1.618  0.1765 -0.0738  0.0751
    1W        W39275  17.558   2.274   7.250  0.0636 -0.1007  0.2096
    1W        W39276  20.136  12.607   1.318  0.2522 -0.4166  0.2907
    1W        W39277  22.689   6.902   6.702 -0.0887  0.0563 -0.0032
    1W        W39278  13.410  11.848   8.039  0.0285 -0.0193  0.0423
    1W        W39279  22.185  25.725   9.409 -0.2373 -0.2974  0.0194
    1W        W39280  23.529  15.454   0.953 -0.1264 -0.0392  0.0106
    1W        W39281  27.984   9.881   7.973 -0.0278  0.0811 -0.1307
    1W        W39282  21.686   6.417   1.990  0.2189 -0.0521 -0.1048
    1W        W39283   7.134   5.242   7.576  0.4778  0.1028  0.0710
    1W        W39284   7.895  16.868   8.703  0.2156 -0.1227  0.1937
    1W        W39285  14.401   0.232   1.320 -0.2086  0.2376  0.2925
    1W        W39286   6.417  13.727   7.907  0.0612 -0.2351  0.0335
    1W        W39287  22.477  12.395   6.352  0.3368  0.0911  0.2710
    1W        W39288  24.019   0.186   2.898 -0.1978  0.3353 -0.1644
    1W        W39289  15.709  16.204   6.730  0.0171 -0.1295  0.1103
    1W        W39290  22.603  22.904   8.636 -0.1213  0.0022  0.1560
    1W        W39291  25.387  16.655   1.173  0.0389 -0.0991  0.0301
    1W        W39292   6.937   8.973   2.986 -0.0313 -0.3371 -0.0725
    1W        W39293   0.191  19.554   0.182  0.0687  0.0315  0.1424
    1W        W39294  29.113  18.195   5.973  0.0510  0.0167  0.0852
    1W        W39295  28.382  14.631   6.203 -0.0800 -0.1064  0.1990
    1W        W39296   9.141  17.780   1.784  0.2008  0.1530  0.1666
    1W        W39297  11.582  29.565   9.305  0.1530 -0.0670 -0.0575
    1W        W39298  27.617  28.151   2.840 -0.0631 -0.0257  0.0361
    1W        W39299   4.897  17.261   0.324 -0.1096 -0.0373  0.0530
    1W        W39300   6.040   2.746   1.329 -0.0186  0.2919  0.1206
    1W        W39301  23.767  25.295   0.754 -0.0503 -0.2525  0.0166
    1W        W39302  26.613   7.939   6.611 -0.0166  0.0159 -0.0473
    1W        W39303  18.815   0.888   1.282  0.1142  0.3405  0.2210
    1W        W39304  19.320  14.439   6.759 -0.4337 -0.3327 -0.2379
    1W        W39305  29.295  16.002   2.067  0.1498  0.1230  0.3302
    1W        W39306   5.022  13.788   1.577 -0.1165 -0.1155  0.0632
    1W        W39307  20.709  23.426   0.167 -0.0120  0.1159  0.2063
    1W        W39308  25.838   8.025   0.595  0.0206 -0.0073 -0.0747
    1W        W39309   1.156  13.664   8.914 -0.2174 -0.0907  0.0889
    1W        W39310   3.926  18.584   9.055 -0.2371 -0.0179 -0.3858
    1W        W39311   6.590  16.693   7.787 -0.1783 -0.0895  0.1719
    1W        W39312  11.431  24.012   8.465 -0.4300 -0.2673  0.1038
    1W        W39313  15.104  23.891   2.490 -0.0485 -0.0533 -0.0141
    1W        W39314  11.801  28.592   1.463 -0.0298 -0.0316 -0.2166
    1W        W39315  24.804   9.516   6.317  0.1032 -0.3026  0.3417
    1W        W39316  14.873   0.391   7.284  0.0008  0.1541 -0.1704
    1W        W39317  19.699   1.678   2.567  0.2600 -0.2495  0.1905
    1W        W39318  10.240   7.733   7.603 -0.0935  0.1443  0.1192
    1W        W39319   4.492  10.754   3.261  0.1033  0.2549 -0.0395
    1W        W39320   8.150   3.198   0.793 -0.0532  0.1865 -0.1832
    1W        W39321   5.304  17.960   8.653 -0.2109  0.0519  0.2176
    1W        W39322  29.684  22.067   1.153 -0.3095 -0.0791 -0.1180
    1W        W39323   9.820  11.766   2.677 -0.1640 -0.0272  0.3960
    1W        W39324  29.683  24.029   2.515  0.0816 -0.3165 -0.0924
    1W        W39325   9.110   9.401   1.337 -0.0737 -0.0881 -0.2681
    1W        W39326  24.597  14.397   1.897 -0.1620  0.0624 -0.2667
    1W        W39327  27.089   0.410   9.406 -0.0803 -0.1390  0.2122
    1W        W39328   8.198  16.702   6.692  0.1122 -0.1230 -0.2169
    1W        W39329  16.338   5.355   9.184 -0.0137 -0.1627 -0.3487
    1W        W39330   0.544  29.791   1.356 -0.0190  0.1258  0.0655
    1W        W39331  12.606  27.807   0.708 -0.3050 -0.1022  0.0715
    1W        W39332  28.572  18.801   1.257 -0.0565 -0.2915 -0.3045
    1W        W39333   1.419  19.341   9.172 -0.0531 -0.0456  0.0690
    1W        W39334   5.331  11.732   0.183  0.1365  0.2161 -0.1860
    1W        W39335  28.870   3.294   0.402 -0.1863  0.6861 -0.1597
    1W        W39336  28.989  13.015   8.709 -0.2678 -0.1658  0.0294
    1W        W39337  26.747  17.944   8.825 -0.3200  0.0048  0.2694
    1W        W39338  17.592  23.697   1.965  0.1065  0.0822  0.1135
    1W        W39339  17.120  10.042   8.016  0.1302  0.2757  0.0481
    1W        W39340  11.666  16.691   7.456  0.0045  0.0818 -0.0724
    1W        W39341   6.458  24.237   0.975  0.0723 -0.1718 -0.0357
    1W        W39342  29.018   0.280   8.904  0.1986 -0.2643 -0.0360
    1W        W39343  27.451   1.251   7.716  0.0110  0.0584 -0.2067
    1W        W39344  25.303  17.338   9.206 -0.1360  0.2318 -0.0496
    1W        W39345  28.625   9.625   2.369  0.1044  0.0024  0.2190
    1W        W39346  25.922  29.168   8.037 -0.1424 -0.1611 -0.0282
    1W        W39347  22.549  28.031   8.856  0.0455 -0.3116  0.0579
    1W        W39348  22.625  17.334   1.088  0.0943  0.0669 -0.1925
    1W        W39349  20.587  20.618   0.983 -0.0200  0.1531 -0.2944
    1W        W39350   4.010  20.332   0.243 -0.3253 -0.0002  0.2522
    1W        W39351  26.527  17.558   8.618  0.1305 -0.1897  0.2828
    1W        W39352  26.476   1.260   0.990 -0.1903 -0.0248  0.1187
    1W        W39353  27.103   5.234   7.863 -0.3280  0.0385  0.0781
    1W        W39354   2.228  22.016   1.346  0.0738 -0.1281 -0.0950
    1W        W39355   9.022  20.841   5.858  0.1090 -0.0727  0.1245
    1W        W39356  29.662  14.279   6.675  0.4132 -0.1227 -0.0850
    1W        W39357  21.906  18.860   7.133 -0.1589 -0.0012  0.0544
    1W        W39358  16.294  23.912   8.584  0.3572  0.0803 -0.2646
    1W        W39359  11.933  10.582   8.100 -0.0485  0.2033  0.1348
    1W        W39360  26.008   5.427   0.379 -0.0940 -0.1891 -0.0612
    1W        W39361  29.413   0.932   7.444  0.0068 -0.0292 -0.0725
    1W        W39362  12.941   7.438   1.922  0.1092 -0.0867  0.2003
    1W        W39363  24.859  27.897   8.633  0.1193 -0.1601  0.1324
    1W        W39364  22.479  28.942   2.463 -0.2570 -0.1582 -0.1632
    1W        W39365   0.804   0.411   8.160 -0.0921 -0.1458 -0.0469
    1W        W39366  12.517  19.091   8.526  0.0326  0.3322  0.0454
    1W        W39367   7.992  15.153   2.516 -0.2246  0.0583  0.0075
    1W        W39368  14.543  14.437   2.553 -0.2384 -0.1783  0.0114
    1W        W39369  29.564  20.373   2.482  0.2680 -0.0918  0.4181
    1W        W39370  15.186  13.118   7.865 -0.0662  0.2622 -0.2471
    1W        W39371  22.655  20.040   6.512 -0.1229  0.2026  0.1363
    1W        W39372  23.290  11.851   6.051  0.0068 -0.0750  0.2236
    1W        W39373  29.486  26.807   1.538  0.3293  0.0333  0.0272
    1W        W39374   7.634   4.636   0.320  0.2621 -0.0818  0.1006
    1W        W39375  24.827  25.550   3.007  0.0246 -0.0692 -0.1576
    1W        W39376  21.709  27.799   7.890 -0.1984  0.0121  0.1064
    1W        W39377   2.877  21.444   6.346  0.0017 -0.0221 -0.1262
    1W        W39378   5.201  14.799   1.433 -0.1473 -0.1060 -0.0028
    1W        W39379  18.689  11.031   8.702  0.0443  0.2247  0.0806
    1W        W39380   1.110  20.685   0.083 -0.0496  0.0915 -0.5556
    1W        W39381  21.513  23.914   0.254 -0.0053  0.0508 -0.0541
    1W        W39382  19.085  10.384   6.020  0.1918  0.0420 -0.2315
    1W        W39383   7.973  22.225   0.883 -0.0624 -0.1185  0.1549
    1W        W39384   0.047  15.313   7.865 -0.0965  0.0296  0.2723
    1W        W39385  28.677  17.265   0.623 -0.0900  0.2728  0.0551
    1W        W39386   9.194  25.295   9.064 -0.0272 -0.0214 -0.0482
    1W        W39387  10.093  17.042   8.653  0.2036  0.1249  0.1277
    1W        W39388  27.505  15.583   1.839  0.1380 -0.2435  0.0593
    1W        W39389  12.335   3.425   1.184 -0.1399 -0.1436 -0.2020
    1W        W39390  19.252   4.865   9.445  0.1484  0.3214  0.1024
    1W        W39391  20.050   6.681   2.309  0.1378 -0.1578  0.0763
    1W        W39392   3.726   4.357   1.135 -0.2102 -0.1680 -0.0902
    1W        W39393  11.869   8.515   8.502 -0.0425  0.0179  0.0082
    1W        W39394  27.823  25.887   8.082 -0.0030  0.0718 -0.0525
    1W        W39395  27.558  28.065   7.809  0.0465  0.1443  0.2891
    1W        W39396  21.053  28.320   2.321  0.1168 -0.0648  0.1590
    1W        W39397   5.387  19.627   0.871  0.1443  0.1707  0.0749
    1W        W39398  27.800  12.914   1.597  0.0548 -0.1671 -0.2143
    1W        W39399  24.115  11.708   7.074 -0.1223 -0.0797  0.1341
    1W        W39400   0.717   4.249   8.915  0.0062 -0.2011  0.0291
    1W        W39401   7.666  27.747   9.162  0.1041 -0.1374  0.0169
    1W        W39402  27.891  25.336   7.970  0.0326 -0.1270  0.0656
    1W        W39403   0.521  16.591   8.672  0.1406 -0.1764 -0.1784
    1W        W39404  29.579  10.712   8.609  0.1890 -0.2355 -0.0926
    1W        W39405  28.702  11.041   7.617 -0.1000 -0.2380 -0.0685
    1W        W39406  24.860  26.980   1.964 -0.1724  0.3101  0.0137
    1W        W39407  29.743   3.392   2.145  0.0167 -0.1863  0.0761
    1W        W39408   0.394  23.825   0.813 -0.2210  0.1493 -0.1071
    1W        W39409   9.136  18.777   1.400  0.1884  0.0418 -0.0766
    1W        W39410  21.019   4.028   0.504  0.2113 -0.2822  0.1770
    1W        W39411  15.848  21.296   0.358 -0.1710 -0.0969  0.1984
    1W        W39412  27.368   9.187   7.325  0.1263 -0.0505 -0.0501
    1W        W39413  14.002  29.318   3.015  0.0289  0.3211 -0.0696
    1W        W39414   7.770  19.959   6.626 -0.0501 -0.0187  0.2781
    1W        W39415   4.702   0.618   9.208  0.3372  0.1289 -0.2054
    1W        W39416   7.664   2.452   8.661  0.1069 -0.0329 -0.2362
    1W        W39417  27.591  23.527   1.995  0.0187 -0.1626  0.2322
    1W        W39418  13.715  27.366   6.903  0.0317  0.0248 -0.1736
    1W        W39419   7.554  15.968   8.336  0.2842  0.1491 -0.4121
    1W        W39420  20.129  25.097   1.026  0.1476  0.1192  0.1350
    1W        W39421  23.862  10.202   9.185  0.2348  0.0683 -0.2555
    1W        W39422  16.214   1.022   8.080 -0.1879 -0.1238  0.2253
    1W        W39423  13.775   4.979   7.482 -0.1168 -0.0971 -0.0475
    1W        W39424   8.692   6.054   1.599  0.0998 -0.0177  0.4567
    1W        W39425  27.900   5.655   1.987  0.1006  0.4183 -0.2101
    1W        W39426   8.776  28.431   8.722 -0.0541 -0.1748  0.0919
    1W        W39427  21.605  26.032   9.338  0.1176 -0.0533  0.3925
    1W        W39428   8.040  15.642   9.071 -0.1883  0.0498  0.2042
    1W        W39429   0.834  20.550   2.701 -0.0465  0.2051  0.1260
    1W        W39430  22.620  28.276   2.983 -0.0123 -0.0381  0.0225
    1W        W39431  17.928  26.365   1.932 -0.1192  0.2753  0.0380
    1W        W39432  10.084  10.808   7.240 -0.1896  0.3899  0.1515
    1W        W39433  25.245   2.864   2.304  0.3956 -0.0621 -0.0072
    1W        W39434  21.177  24.102   3.863  0.1506 -0.0965  0.2150
    1W        W39435  26.494  26.360   7.065 -0.1907  0.2144 -0.2123
    1W        W39436  23.929  17.267   8.993 -0.0192  0.2512  0.1191
    1W        W39437  16.388  19.652   0.159 -0.0406 -0.2140 -0.0998
    1W        W39438  22.868  27.480   6.863  0.0424  0.0784  0.2554
    1W        W39439  28.147  26.768   7.630  0.0176  0.1023 -0.0254
    1W        W39440  14.368  22.270   9.397  0.1862  0.2322  0.3850
    1W        W39441  23.360  15.371   6.989 -0.0997 -0.0949  0.1708
    1W        W39442  22.002  20.332   8.281  0.2380  0.0117  0.4674
    1W        W39443  24.218  12.101   8.868 -0.1070  0.0815 -0.3545
    1W        W39444  25.996  11.530   7.063 -0.0699  0.0114 -0.2493
    1W        W39445  12.677  18.551   7.525  0.0118 -0.0620  0.1041
    1W        W39446   6.867   6.253   1.865 -0.3486 -0.0525 -0.0213
    1W        W39447  24.734   6.593   6.865  0.2670 -0.1459  0.0288
    1W        W39448  22.001  12.860   1.549 -0.1897 -0.0049  0.0415
    1W        W39449   3.845  14.921   6.772  0.0847  0.1213  0.3687
    1W        W39450  28.152   8.565   7.121  0.0977 -0.0643 -0.1718
    1W        W39451  12.070  23.745   2.237 -0.0003  0.0988 -0.1552
    1W        W39452  14.348   5.803   1.608 -0.0181 -0.0113 -0.0593
    1W        W39453  16.534  23.214   7.783 -0.0089  0.0993  0.0808
    1W        W39454   6.104   1.191   6.882 -0.2289 -0.1388  0.0420
    1W        W39455  14.798   1.945   0.029 -0.1002 -0.1666 -0.1120
    1W        W39456   3.696  16.606   8.340  0.1490  0.1377  0.0265
    1W        W39457   2.429  18.306   8.053 -0.1307  0.1242 -0.0437
    1W        W39458  27.235  12.555   2.510  0.0061  0.1128 -0.2415
    1W        W39459   4.160   0.108   9.436 -0.1567  0.0760 -0.0716
    1W        W39460  15.058  25.733   0.151 -0.1174  0.0321  0.1206
    1W        W39461  23.348  22.512   7.567 -0.2298  0.1712  0.3760
    1W        W39462   2.993  23.269   2.022  0.0726 -0.0886  0.0653
    1W        W39463  20.882  12.913   1.957 -0.0487 -0.0269 -0.1393
    1W        W39464  10.212   9.609   2.178 -0.4205 -0.2623  0.2432
    1W        W39465  24.778   8.414   6.272 -0.2339  0.3069  0.0182
    1W        W39466   3.088   8.754   0.194 -0.1005  0.3250 -0.2049
    1W        W39467  10.841  22.507   2.119 -0.0760  0.0794  0.0880
    1W        W39468  12.479   0.696   3.085  0.1694 -0.0738 -0.0027
    1W        W39469  27.149  23.747   0.505 -0.2527  0.2358  0.1330
    1W        W39470  19.129  27.734   1.895 -0.0326  0.1774  0.1121
    1W        W39471  22.939  11.369   7.559 -0.2179 -0.1012  0.1010
    1W        W39472  13.650   3.528   7.672 -0.1764 -0.2684 -0.1567
    1W        W39473  19.231  15.019   6.906 -0.2023 -0.0917 -0.3836
    1W        W39474  19.263  29.317   2.435 -0.0456  0.1673 -0.0549
    1W        W39475  28.413  22.338   1.731  0.1732  0.1144  0.0729
    1W        W39476  28.795  15.950   0.676 -0.0612  0.3793 -0.2383
    1W        W39477   3.442  24.219   0.590  0.1488 -0.0852  0.1306
    1W        W39478  15.308  26.670   6.820 -0.0404  0.0747  0.0390
    1W        W39479   3.441  20.566   6.352 -0.0581 -0.0407  0.1167
    1W        W39480  16.981  27.464   2.554 -0.0337 -0.2663 -0.2357
    1W        W39481   0.140  29.559   8.710 -0.1978  0.1220 -0.3324
    1W        W39482   8.637  14.822   1.119 -0.0507 -0.0330 -0.2834
    1W        W39483  11.214   9.801   8.317 -0.0972 -0.0887  0.0314
    1W        W39484  10.304  21.413   0.431 -0.0420 -0.0169  0.1652
    1W        W39485   4.758  15.036   1.335  0.0629  0.0411 -0.4442
    1W        W39486  23.797   7.172   1.626  0.3299 -0.2281  0.0440
    1W        W39487  24.039   1.241   0.900  0.2811 -0.0259 -0.0141
    1W        W39488  22.569   9.139   8.067  0.0967 -0.2344 -0.0216
    1W        W39489   1.521   1.357   1.815 -0.3579  0.0330 -0.2198
    1W        W39490  19.970   4.875   0.321 -0.0521 -0.0352  0.1695
    1W        W39491  15.386  26.348   7.180 -0.0912  0.0364  0.0506
    1W        W39492  29.009  22.636   1.732  0.1111 -0.2908 -0.0391
    1W        W39493  29.292   2.500   0.135  0.3042 -0.4266  0.0780
    1W        W39494  20.218   4.497   1.381 -0.0088 -0.1500 -0.0647
    1W        W39495  20.039   3.491   1.188 -0.0516  0.0455 -0.1083
    1W        W39496  25.370  10.230   0.188  0.2078 -0.0586  0.0295
    1W        W39497  20.461  26.529   7.157 -0.1579 -0.1093  0.2065
    1W        W39498  29.274   1.771   2.040  0.0948  0.2234 -0.1152
    1W        W39499  18.712  14.195   0.576  0.0634  0.0023 -0.4062
    1W        W39500  22.355  12.107   1.553  0.0361 -0.0919  0.1846
    1W        W39501  16.678   1.647   1.808  0.3058 -0.1116  0.0681
    1W        W39502  16.115   8.123   1.582 -0.1074  0.0629  0.1423
    1W        W39503   4.825  27.949   0.620  0.0201  0.1910 -0.1122
    1W        W39504  22.178  29.003   1.327 -0.0118 -0.0480  0.2036
    1W        W39505  26.292  25.802   7.903  0.4341  0.1205  0.1136
    1W        W39506  29.195  21.276   1.586 -0.0084  0.1235  0.0965
    1W        W39507   7.844   7.333   9.201  0.0548  0.1319 -0.1638
    1W        W39508   8.283  19.768   1.237  0.0260 -0.2073  0.3662
    1W        W39509  26.050  14.953   1.854 -0.2520  0.2334  0.0988
    1W        W39510  14.241  14.326   9.029  0.2733 -0.1710  0.1971
    1W        W39511  25.455  14.467   6.233 -0.0881 -0.4384 -0.2020
    1W        W39512   9.612  25.601   0.418 -0.0202  0.0576 -0.2268
    1W        W39513  17.988  23.006   1.520 -0.1210 -0.2048  0.2753
    1W        W39514  21.668  28.991   2.137 -0.1179 -0.0982  0.0228
    1W        W39515  11.723   1.845   0.979  0.0228  0.1490  0.0009
    1W        W39516  24.760  16.075   8.236  0.1108  0.3665  0.2253
    1W        W39517  11.670  25.067   7.819 -0.3282  0.0025 -0.1874
    1W        W39518   8.611  24.278   7.107  0.1017 -0.1500  0.2942
    1W        W39519  22.803   7.830   6.592  0.1906 -0.1027  0.0426
    1W        W39520  11.162   8.749   1.466 -0.1468 -0.1154 -0.3139
    1W        W39521  23.866  27.914   8.069 -0.0069 -0.0020  0.1211
    1W        W39522  26.622  14.417   5.964 -0.1392  0.0631  0.0288
    1W        W39523  17.695  18.674   8.501 -0.2457  0.0194 -0.2360
    1W        W39524   8.689   9.615   1.649  0.1565  0.1492  0.0328
    1W        W39525   6.852   1.091   7.356  0.0738 -0.2938  0.1972
    1W        W39526  22.146  22.718   8.473  0.1168  0.2968 -0.0989
    1W        W39527  28.140   6.071   0.134  0.1337 -0.1080 -0.3216
    1W        W39528   4.680  26.414   8.415  0.1400  0.1706 -0.0178
    1W        W39529  17.707   5.387   0.609  0.3867 -0.2209 -0.1966
    1W        W39530  21.360   6.621   6.774  0.3023 -0.1132  0.1166
    1W        W39531   4.674  22.971   0.038 -0.0738 -0.0750 -0.1230
    1W        W39532  21.017  27.036   1.196  0.0155  0.1409 -0.4193
    1W        W39533  15.853  21.307   9.316  0.0958 -0.1272  0.1765
    1W        W39534   7.451   5.917   2.599  0.2614  0.0411 -0.0319
    1W        W39535  29.472  17.536   0.424 -0.1711 -0.0217 -0.2546
    1W        W39536   3.764  15.905   8.678 -0.4360  0.3415  0.0591
    1W        W39537  10.550   0.456   7.191 -0.1967  0.0608  0.1381
    1W        W39538  29.099   1.157   8.207  0.1724  0.2023  0.1459
    1W        W39539  22.299  18.329   8.316 -0.0208  0.1835  0.1155
    1W        W39540   4.559   3.191   7.552 -0.2201 -0.0235  0.2058
    1W        W39541  15.189   1.042   0.410  0.0821  0.2029 -0.1987
    1W        W39542  27.405   3.250   3.042 -0.0159 -0.0279  0.1903
    1W        W39543   1.539   2.283   1.877  0.1640  0.0418 -0.1519
    1W        W39544   7.247  25.114   7.971  0.3344  0.1661  0.0510
    1W        W39545   2.040  25.847   8.392  0.1432 -0.3648  0.0722
    1W        W39546  16.967  15.630   7.124 -0.0581 -0.1539 -0.0525
    1W        W39547  16.973   0.148   7.934 -0.0790  0.0899  0.3471
    1W        W39548  10.037   0.202   7.085 -0.1000 -0.2142 -0.2777
    1W        W39549  26.956  26.986   8.212 -0.2732 -0.2198  0.1836
    1W        W39550   2.613  26.458   0.470  0.1298 -0.1433 -0.0523
    1W        W39551  17.643   8.464   8.096 -0.1362 -0.1186  0.1552
    1W        W39552  22.238  14.735   6.994  0.0045  0.0753  0.1821
    1W        W39553  18.283  11.138   8.246 -0.1416  0.0372  0.2083
    1W        W39554  23.933  16.032   9.296 -0.2092 -0.2204  0.0500
    1W        W39555  15.031   5.152   7.009 -0.1813  0.1411  0.2281
    1W        W39556  10.650  22.947   7.285 -0.0114 -0.1397  0.2704
    1W        W39557  19.992   0.082   2.470 -0.0791  0.1069 -0.0362
    1W        W39558   7.205  16.113   9.120  0.0362 -0.0636  0.2161
    1W        W39559   4.894   3.967   8.501 -0.0898 -0.2072  0.4233
    1W        W39560  19.981   4.916   1.670 -0.2256 -0.1265  0.2377
    1W        W39561  10.122  15.190   8.774 -0.2440 -0.1807 -0.1804
    1W        W39562  27.846   4.367   2.109  0.3119  0.3145  0.1176
    1W        W39563  21.452   7.555   6.858 -0.0389  0.3210  0.0605
    1W        W39564   4.082   9.033   2.353  0.2160 -0.1131  0.0076
    1W        W39565   4.184   8.833   0.895  0.1877 -0.0990 -0.4287
    1W        W39566  16.284   4.556   1.174  0.1532 -0.2030  0.2222
    1W        W39567  14.654   6.851   0.202 -0.1662 -0.1814  0.0831
    1W        W39568  27.720   2.986   2.737  0.2368 -0.1456 -0.1788
    1W        W39569  26.072  15.741   7.441 -0.2111  0.0127  0.1466
    1W        W39570  27.598  27.792   6.890  0.2271 -0.0929 -0.0357
    1W        W39571  20.942  23.243   3.860 -0.0261  0.1187  0.0192
    1W        W39572  10.194   1.007   6.941 -0.1237  0.0390  0.0512
    1W        W39573   9.986  22.324   9.092  0.0668 -0.1478  0.0484
    1W        W39574   4.538  13.697   0.728 -0.4535  0.1191  0.1234
    1W        W39575  28.240  10.784   1.056  0.0991  0.2508 -0.0651
    1W        W39576  22.796  11.938   0.192  0.0067 -0.1315 -0.0765
    1W        W39577  25.395  28.643   0.120  0.2943 -0.0119  0.0274
    1W        W39578  19.850   4.317   7.098 -0.0653  0.1728 -0.2364
    1W        W39579  13.958  18.167   7.841 -0.2556  0.1719  0.0841
    1W        W39580   5.601  19.948   8.231  0.2150  0.2608  0.1372
    1W        W39581   1.000   0.410   2.533  0.2244 -0.0687  0.0726
    1W        W39582  24.422   5.026   8.908 -0.1269  0.2473 -0.1913
    1W        W39583   7.769   7.183   8.698  0.1532 -0.0945  0.0760
    1W        W39584   2.789   4.422   8.116  0.1983 -0.1112 -0.1927
    1W        W39585   5.631  25.759   8.318  0.3294  0.2614 -0.2561
    1W        W39586   5.146  18.792   8.981  0.0251 -0.0339  0.3064
    1W        W39587  19.468  13.092   7.254  0.0527 -0.0144 -0.0682
    1W        W39588  10.757  21.719   0.373 -0.2223  0.1335  0.1617
    1W        W39589  29.413  29.097   1.127 -0.1987 -0.2247  0.0347
    1W        W39590  12.109   1.300   9.337 -0.2727 -0.0671 -0.1669
    1W        W39591  13.271  15.593   1.383 -0.2336 -0.1537 -0.1207
    1W        W39592  25.902   2.444   2.676 -0.2271 -0.3014  0.0443
    1W        W39593  15.888  15.371   0.887  0.0452 -0.1085 -0.4209
    1W        W39594  17.124  23.274   0.027 -0.0577  0.0365  0.1480
    1W        W39595  26.597  26.261   6.265  0.0138  0.3229 -0.1101
    1W        W39596   5.744  28.990   2.211  0.2649 -0.2143  0.0730
    1W        W39597   7.159   5.581   2.433  0.1955 -0.1007 -0.1058
    1W        W39598  28.946  24.890   0.300  0.0015 -0.1016 -0.3191
    1W        W39599   7.740   8.933   9.167  0.1253  0.0643 -0.0323
    1W        W39600  23.786  11.434   6.808  0.0534  0.0387 -0.0666
    1W        W39601  17.742  12.672   7.363  0.0314 -0.0374  0.0102
    1W        W39602  11.367  26.608   1.507 -0.2544  0.1034  0.0770
    1W        W39603   4.956  22.238   2.357 -0.2958  0.1781  0.3706
    1W        W39604  11.187  25.631   6.587 -0.1343  0.0030 -0.0869
    1W        W39605  18.089  12.016   1.412 -0.0636 -0.0117 -0.0049
    1W        W39606  26.149  11.704   6.140  0.0098 -0.4297 -0.3646
    1W        W39607  29.541  28.139   1.099 -0.0342 -0.1101  0.1907
    1W        W39608  26.283   7.732   7.058  0.0321 -0.2404 -0.1257
    1W        W39609  26.247  28.609   3.558  0.1697 -0.2124 -0.3141
    1W        W39610  25.350  12.499   7.733 -0.0228 -0.1175  0.1277
    1W        W39611   7.346   4.317   9.273  0.0960 -0.0489  0.0964
    1W        W39612  25.325  18.394   6.041  0.1996 -0.2073  0.1976
    1W        W39613   6.086  20.463   9.023 -0.1899 -0.5508 -0.0241
    1W        W39614   4.557  17.411   7.433  0.2803  0.1754 -0.2729
    1W        W39615  13.076  12.466   9.346  0.2731 -0.2682  0.2216
    1W        W39616  19.321  26.227   1.322 -0.0233 -0.2723  0.0097
    1W        W39617  27.585   7.452   5.999 -0.2101  0.0728  0.1547
    1W        W39618   0.181   0.979   2.670 -0.0740  0.0497  0.2187
    1W        W39619   7.819   5.610   8.835 -0.0050 -0.0138  0.1593
    1W        W39620  28.897  13.912   0.301 -0.0623 -0.2687 -0.0497
    1W        W39621  21.564  21.326   2.575  0.1629 -0.1763  0.1745
    1W        W39622  20.492  17.210   1.392  0.1790  0.1129 -0.0480
    1W        W39623   7.165  24.252   8.620  0.0982 -0.0152 -0.1231
    1W        W39624   7.901  14.673   7.511 -0.0924 -0.0586 -0.3591
    1W        W39625  22.428  10.572   8.590 -0.0034 -0.0209  0.2633
    1W        W39626  15.225  12.178   1.112 -0.0694 -0.0962 -0.1395
    1W        W39627  13.253  17.904   9.158  0.0214 -0.1500  0.0626
    1W        W39628   4.627  11.118   0.449  0.0298  0.2985  0.2122
    1W        W39629   7.509  10.204   2.269  0.2862  0.0348  0.2954
    1W        W39630  21.944  24.638   9.336 -0.2104 -0.0240 -0.1363
    1W        W39631  24.183  22.149   7.813  0.1099  0.4681 -0.0229
    1W        W39632  25.413  21.611   9.078 -0.1534  0.1104 -0.0358
    1W        W39633   6.132  18.937   6.142  0.0406  0.1689  0.0553
    1W        W39634  29.810  22.128   1.827 -0.3805  0.0702  0.0655
    1W        W39635   2.177   5.131   8.420 -0.0543 -0.0838 -0.0515
    1W        W39636  11.753   2.888   0.202  0.0092 -0.1206  0.2407
    1W        W39637   8.762  26.797   7.957 -0.2421  0.0424  0.2004
    1W        W39638  18.548  19.144   0.989 -0.0262 -0.0476  0.0786
    1W        W39639   4.138   3.473   8.374 -0.2398  0.2972 -0.0636
    1W        W39640   1.971  23.007   2.644  0.0567  0.0363  0.1194
    1W        W39641   8.784  24.088   8.995  0.2850 -0.1960  0.0055
    1W        W39642   7.184  13.952   1.074 -0.0731  0.0471 -0.2747
    1W        W39643   1.794   8.131   7.948 -0.3166 -0.3771 -0.0253
    1W        W39644  21.024  25.650   7.014 -0.1006  0.0656  0.3157
    1W        W39645  27.080  29.657   1.585 -0.0518 -0.2850 -0.2702
    1W        W39646  28.694  19.160   2.032  0.0687 -0.1829 -0.2223
    1W        W39647  12.296  24.599   1.871 -0.0064  0.1198  0.2820
    1W        W39648  20.790  13.554   6.923 -0.2096  0.0027  0.1300
    1W        W39649  27.088  26.212   0.945  0.2463  0.0092  0.0947
    1W        W39650   5.132  21.312   2.040  0.0635  0.0188  0.1324
    1W        W39651  22.130   2.757   6.604  0.0009  0.3048 -0.1924
    1W        W39652  15.824  18.727   8.750 -0.0628 -0.0640 -0.1432
    1W        W39653   1.849  21.443   7.401 -0.2742 -0.1000  0.2766
    1W        W39654   5.249   0.746   9.243  0.1013 -0.1590  0.0798
    1W        W39655  25.892  23.433   9.069  0.0411  0.0350 -0.1220
    1W        W39656   8.116   5.206   2.833  0.0764 -0.0574 -0.2503
    1W        W39657  28.704   6.775   1.805  0.3213  0.3558  0.5211
    1W        W39658   2.584  18.395   7.611  0.0311  0.0969  0.0176
    1W        W39659  17.659   6.599   8.545  0.1661  0.6469  0.2512
    1W        W39660   9.556   7.719   0.286 -0.0133 -0.1540 -0.0672
    1W        W39661   1.697   9.107   8.287 -0.2491 -0.0881  0.1520
    1W        W39662  11.772  20.533   1.474  0.1050  0.0464  0.1899
    1W        W39663   9.251  11.904   9.176  0.2123 -0.0510 -0.2500
    1W        W39664   4.220  26.366   8.890  0.1561  0.1358 -0.3149
    1W        W39665   7.212   7.597   1.233 -0.2108 -0.1108 -0.1145
    1W        W39666  13.218  20.151   7.938  0.1721  0.1186  0.0363
    1W        W39667   0.535   7.241   3.205  0.1758 -0.1260 -0.1917
    1W        W39668  23.533   5.500   9.220 -0.2958 -0.1166  0.2579
    1W        W39669  13.848  27.157   0.739  0.0852  0.3070 -0.1817
    1W        W39670  19.380  17.954   0.746 -0.2096 -0.2959 -0.0356
    1W        W39671  12.618  10.279   8.783  0.0613 -0.1637  0.2688
    1W        W39672  24.118  28.569   8.709  0.1120  0.2341  0.0272
    1W        W39673  19.455  24.357   8.919 -0.0240  0.1810  0.0680
    1W        W39674   3.392  18.376   6.568  0.3419  0.0377 -0.0089
    1W        W39675   4.472  24.091   0.128  0.3884  0.1102  0.0203
    1W        W39676   5.708  17.600   1.659 -0.1002 -0.2476  0.3970
    1W        W39677   6.000   4.725   3.111  0.0457 -0.0413  0.1170
    1W        W39678  13.531  23.993   1.480  0.2956  0.4369  0.0114
    1W        W39679  26.846   8.175   1.435  0.1012 -0.1003 -0.2473
    1W        W39680  25.858   4.671   0.953  0.1565  0.1326 -0.1529
    1W        W39681  12.463  16.940   0.642  0.0266 -0.0581  0.2279
    1W        W39682  18.104  14.076   8.678  0.1549 -0.0012  0.0874
    1W        W39683  26.723  15.253   8.773  0.0566  0.5322  0.2271
    1W        W39684  20.003  21.578   0.188  0.1481 -0.0294 -0.0970
    1W        W39685  26.734   2.656   6.099 -0.0021  0.2039  0.2002
    1W        W39686  24.517  11.039   1.683  0.2086  0.0541 -0.1855
    1W        W39687   6.057  28.276   3.435  0.0251  0.1513  0.0154
    1W        W39688  15.318  29.623   3.261  0.2360 -0.0048 -0.0933
    1W        W39689  11.711   4.597   2.338  0.1264 -0.0280 -0.0867
    1W        W39690  13.765   6.828   0.870  0.1084  0.0222 -0.5245
    1W        W39691  23.340  28.543   9.244 -0.0938  0.0028  0.0771
    1W        W39692  13.812  24.828   0.312 -0.3524 -0.0555  0.0424
    1W        W39693  18.475   5.672   1.327 -0.1945 -0.4324 -0.0726
    1W        W39694  28.926  10.632   7.995  0.1236  0.1063 -0.0010
    1W        W39695   7.610  26.887   0.231  0.1864 -0.1415 -0.0191
    1W        W39696  25.499   9.967   7.238 -0.1398  0.0416 -0.0450
    1W        W39697  20.879  19.601   2.387  0.1557  0.2883 -0.0460
    1W        W39698  13.371   1.088   0.492 -0.1269 -0.2322 -0.0628
    1W        W39699  17.156  12.602   1.188 -0.0934 -0.0943  0.0594
    1W        W39700  16.024  22.339   0.367  0.0071  0.3161  0.3856
    1W        W39701  25.008  25.320   8.632  0.0285  0.1997  0.0163
    1W        W39702   4.434   4.191   9.435 -0.3077  0.1419  0.1167
    1W        W39703  14.896   1.549   1.666  0.0647  0.1917  0.0464
    1W        W39704  11.417   0.456   1.893 -0.0281  0.0411  0.1409
    1W        W39705   1.259   4.441   7.619 -0.0317  0.1537  0.1061
    1W        W39706  27.498  18.777   9.362  0.0787 -0.1286  0.2612
    1W        W39707  20.835  22.069   9.206 -0.0084 -0.0189 -0.2274
    1W        W39708  25.745  25.489   9.147  0.1404 -0.0234  0.0357
    1W        W39709   8.592   5.502   6.950  0.0734 -0.0585 -0.0896
    1W        W39710   4.453  15.820   6.729  0.1476  0.1980 -0.0514
    1W        W39711   0.846  15.758   0.265 -0.2666 -0.0518 -0.0822
    1W        W39712  20.563  21.945   3.782 -0.1035  0.4498 -0.2775
    1W        W39713  14.879  26.206   2.362 -0.0099 -0.0039 -0.1303
    1W        W39714  25.498  13.276   1.643  0.0326 -0.0354  0.1330
    1W        W39715  11.804  19.304   9.278  0.3407  0.3620 -0.0228
    1W        W39716  15.078   9.085   1.579  0.1463 -0.1021 -0.0750
    1W        W39717  11.951  16.165   8.120 -0.0884 -0.1005  0.3376
    1W        W39718   6.747  26.421   8.364 -0.1164 -0.0404  0.0102
    1W        W39719   7.896   2.903   8.031  0.2100 -0.2050 -0.1459
    1W        W39720   0.170   6.274   2.375  0.3256 -0.4629  0.2926
    1W        W39721  21.379  14.033   8.092 -0.3124 -0.1080 -0.2897
    1W        W39722  14.724  13.439   0.856 -0.5711  0.1047  0.2523
    1W        W39723  22.738   2.435   1.515 -0.0771 -0.1205 -0.2680
    1W        W39724   7.682  25.152   8.270 -0.0350 -0.0305 -0.0166
    1W        W39725  24.537   2.961   1.732 -0.0285  0.1684  0.3734
    1W        W39726  26.850   8.694   7.339 -0.1942  0.1525  0.4133
    1W        W39727   1.236   1.624   8.599 -0.2296  0.0554  0.1101
    1W        W39728  17.724  29.669   2.290 -0.3201 -0.3357 -0.0899
    1W        W39729   2.825  28.488   2.002 -0.0375 -0.1811  0.0611
    1W        W39730  28.056  12.910   8.878 -0.1158 -0.0130 -0.1942
    1W        W39731  12.940  15.884   9.459 -0.2186  0.1004  0.0549
    1W        W39732  26.769  24.109   2.474 -0.0236  0.0277 -0.1322
    1W        W39733   8.769   9.148   2.527  0.0286 -0.0133  0.0103
    1W        W39734  26.745  26.039   7.927 -0.0166  0.0208 -0.1598
    1W        W39735   5.714  12.871   2.876 -0.2245  0.1679 -0.3347
    1W        W39736  23.008  23.329   1.644  0.1096  0.0809 -0.1901
    1W        W39737   6.461   0.839   9.163  0.4348 -0.0691  0.0891
    1W        W39738  19.312   5.059   2.747  0.2378 -0.3724  0.2535
    1W        W39739  15.631  10.231   0.718 -0.0885  0.0297  0.0885
    1W        W39740   0.799  20.791   5.749  0.0281 -0.1621  0.1271
    1W        W39741   5.629  14.221   1.917  0.1354 -0.0650 -0.0880
    1W        W39742   3.709  27.225   8.000  0.1256 -0.0443 -0.2779
    1W        W39743  15.549   2.909   7.235 -0.2159 -0.2493 -0.3931
    1W        W39744  26.277  20.889   2.088 -0.3562  0.1644  0.1063
    1W        W39745  25.392   4.410   1.898  0.1312 -0.0023 -0.2543
    1W        W39746  10.349   0.045   8.026 -0.3221  0.1382  0.2280
    1W        W39747   6.743  28.767   2.949 -0.0834 -0.0326 -0.1680
    1W        W39748   7.771  18.146   8.338  0.2692 -0.2311 -0.0323
    1W        W39749  23.002  17.051   8.218  0.1853  0.0623 -0.0308
    1W        W39750  29.193  29.003   1.618  0.3210  0.1412  0.0515
    1W        W39751  13.186  16.116   7.861 -0.1999 -0.0490  0.3479
    1W        W39752  11.278  24.259   7.409 -0.0312  0.0515 -0.0014
    1W        W39753   2.350  11.116   2.036 -0.1044  0.2133  0.0635
    1W        W39754  11.643  21.208   7.747 -0.3867 -0.0521 -0.1196
    1W        W39755  15.252   9.019   8.401  0.3756 -0.2878 -0.0562
    1W        W39756  15.989  27.322   1.131  0.2325  0.0026 -0.1103
    1W        W39757   1.268   9.566   6.887 -0.2375  0.1435 -0.1987
    1W        W39758  26.003  27.320   0.577  0.1217  0.0494  0.1801
    1W        W39759   6.423  16.057   0.722 -0.0457  0.0943 -0.0979
    1W        W39760   7.355  11.285   9.144  0.1436  0.1511 -0.0250
    1W        W39761  19.522  12.904   8.376 -0.0130  0.1319  0.0918
    1W        W39762  28.889  13.191   0.760 -0.3332 -0.0505  0.2514
    1W        W39763  19.549   2.332   2.318 -0.1170  0.0794  0.3535
    1W        W39764  12.893  17.533   7.640 -0.0670 -0.5418 -0.0520
    1W        W39765   5.478  14.340   6.142  0.2016  0.0144 -0.0595
    1W        W39766  11.047  11.321   7.503 -0.0855 -0.2203 -0.2163
    1W        W39767  26.285  22.255   6.566  0.3273 -0.1692 -0.1514
    1W        W39768  20.819   0.693   1.640  0.1507  0.0851  0.0247
    1W        W39769   9.053   0.774   8.157 -0.3300  0.1971 -0.0259
    1W        W39770  17.457  10.454   2.391 -0.3054 -0.1192  0.2604
    1W        W39771  13.854  16.363   1.630 -0.0134 -0.0115 -0.2484
    1W        W39772   4.412  14.959   8.596 -0.4068  0.1338  0.0552
    1W        W39773   9.096  26.624   2.885  0.1263 -0.0994  0.3421
    1W        W39774   2.433   6.015   1.814 -0.0326  0.2001  0.0560
    1W        W39775  22.980   5.860   1.018  0.1454 -0.0138  0.2060
    1W        W39776   1.397  23.882   9.224 -0.1267 -0.1693  0.1188
    1W        W39777  11.675   5.195   7.990  0.2755 -0.0005 -0.0467
    1W        W39778   4.084   4.161   0.826 -0.1249 -0.1025  0.1030
    1W        W39779  14.246  16.053   8.428 -0.2124 -0.0535  0.2109
    1W        W39780   8.592  26.008   1.882 -0.3211 -0.1331  0.0847
    1W        W39781  19.282   9.013   7.486 -0.1497 -0.3413  0.1898
    1W        W39782  17.278  27.903   2.484 -0.0748  0.0096  0.0485
    1W        W39783   2.581   7.572   6.575  0.0276  0.1396 -0.1161
    1W        W39784  25.187   9.098   9.178  0.0273 -0.0762  0.0351
    1W        W39785  23.384  14.042   7.227  0.1708 -0.3143  0.0622
    1W        W39786  23.800  11.031   6.474 -0.1745  0.2641 -0.0061
    1W        W39787  27.771   4.303   8.042  0.0574 -0.2086  0.1984
    1W        W39788  24.133  23.627   8.437  0.1498 -0.0623 -0.1463
    1W        W39789  19.849  24.499   2.428  0.0036 -0.1607  0.2377
    1W        W39790  21.214  10.860   0.491  0.1607 -0.0488  0.0217
    1W        W39791   0.113  18.345   1.570 -0.0489  0.1541  0.0501
    1W        W39792  19.292   1.360   0.122  0.0293 -0.2184 -0.1499
    1W        W39793   8.663  19.491   7.498 -0.0818 -0.1750  0.1606
    1W        W39794   7.737  13.077   6.973  0.0932  0.0648  0.0837
    1W        W39795  16.389  18.222   1.969 -0.1915 -0.0514 -0.1611
    1W        W39796  24.610   8.713   1.855 -0.4339 -0.2627  0.1340
    1W        W39797   3.096   0.272   1.341 -0.1654  0.1744 -0.1110
    1W        W39798   6.675   7.178   7.523 -0.3809  0.0591  0.2227
    1W        W39799   1.311  25.304   1.893  0.2317 -0.0173  0.2236
    1W        W39800   6.770   1.744   3.676  0.0745 -0.0122 -0.2000
    1W        W39801  19.651  20.803   9.438 -0.0983  0.1897  0.1876
    1W        W39802   5.427   9.342   8.605  0.1508  0.2060  0.0924
    1W        W39803   1.978   9.880   0.001 -0.0811  0.0355  0.4749
    1W        W39804  15.365   8.168   7.375 -0.4107  0.2474  0.1316
    1W        W39805  19.427  25.588   2.358 -0.0393  0.0298 -0.0698
    1W        W39806  10.828  27.459   8.231 -0.0236  0.0070 -0.1998
    1W        W39807  11.874  18.056   8.254 -0.0578 -0.0872 -0.1200
    1W        W39808  22.178   5.236   9.216 -0.1944  0.1004 -0.0501
    1W        W39809   2.401  15.353   8.414 -0.1363 -0.2179 -0.0398
    1W        W39810  15.040  23.897   7.099  0.1303  0.0657 -0.0439
    1W        W39811  20.619  16.923   9.116  0.0388 -0.2344 -0.2068
    1W        W39812   9.472   2.413   7.262  0.4499  0.3692  0.4475
    1W        W39813  10.423  20.675   1.118  0.1293 -0.1817  0.1503
    1W        W39814   4.157  23.456   6.764 -0.0451 -0.0105 -0.1858
    1W        W39815  28.907   8.236   8.524 -0.2427 -0.1083  0.3043
    1W        W39816   2.819  12.622   0.342 -0.0255 -0.1156  0.1127
    1W        W39817  12.520  23.237   0.316  0.0701 -0.0180  0.0758
    1W        W39818  10.634   1.144   7.794  0.1615 -0.0261  0.1745
    1W        W39819   6.502  22.509   6.347  0.1239 -0.1251 -0.0327
    1W        W39820   6.888  25.359   7.583 -0.3040  0.1412  0.1149
    1W        W39821   1.685   0.296   0.968  0.2313 -0.2918  0.1268
    1W        W39822  28.614  15.565   7.525  0.2310  0.0789 -0.0985
    1W        W39823   2.447  15.157   6.821 -0.2367 -0.1701  0.0832
    1W        W39824   3.220  14.226   0.025  0.0282 -0.3201  0.0464
    1W        W39825   3.110  20.461   8.810  0.0401 -0.2279 -0.3633
    1W        W39826  16.191  10.680   1.225 -0.0953 -0.0015  0.1330
    1W        W39827  16.645  19.783   6.783  0.4463  0.1648 -0.0615
    1W        W39828   3.660   0.163   2.538  0.0542 -0.0653  0.0157
    1W        W39829  22.184   1.990   8.535  0.1459 -0.0698 -0.2571
    1W        W39830  16.476  15.757   1.300 -0.0631 -0.3228 -0.1266
    1W        W39831  21.532  25.762   7.000 -0.0327 -0.4443 -0.0613
    1W        W39832  19.304   8.689   2.012  0.1946 -0.1115  0.0116
    1W        W39833  25.090   4.473   0.931  0.0104 -0.0930 -0.2754
    1W        W39834  13.477  25.794   2.426  0.0462 -0.0269  0.1565
    1W        W39835  28.403  11.896   2.778  0.0572  0.0169 -0.1618
    1W        W39836   0.775  14.966   6.208 -0.2014 -0.1458  0.4078
    1W        W39837  12.315   0.934   6.838  0.1235  0.0335  0.0890
    1W        W39838  13.517  23.901   0.483  0.2935 -0.3490  0.1531
    1W        W39839  20.921  29.231   0.016  0.1442 -0.0810  0.4009
    1W        W39840  16.030  24.500   6.336  0.2229  0.3601  0.2320
    1W        W39841  24.124  24.328   6.750  0.0032 -0.4577  0.0630
    1W        W39842  19.956   8.810   0.220  0.1373  0.3232 -0.1805
    1W        W39843  24.592  28.985   0.883 -0.3968  0.3141 -0.2074
    1W        W39844   1.971  19.014   1.550  0.1347 -0.2821 -0.2802
    1W        W39845   4.982  13.546   6.938 -0.0703  0.0156  0.0962
    1W        W39846  24.077   7.426   7.284  0.3329  0.0664  0.2427
    1W        W39847  18.460   0.182   7.883 -0.1574  0.0263  0.3308
    1W        W39848   1.168  24.638   7.368  0.0331 -0.1015 -0.0265
    1W        W39849   3.499  11.563   9.310 -0.1767  0.0852 -0.1251
    1W        W39850   4.420  24.860   6.919  0.3526 -0.1693  0.0620
    1W        W39851  22.529  23.254   0.498  0.1460 -0.2757  0.2054
    1W        W39852  19.730   7.973   6.595  0.3181 -0.2409 -0.0961
    1W        W39853   3.605  14.796   6.294 -0.1312 -0.1225  0.0431
    1W        W39854  10.329   9.142   7.739 -0.1147  0.0649  0.1168
    1W        W39855  14.900  20.552   7.836  0.1930  0.0682 -0.0432
    1W        W39856   0.687  26.627   7.129  0.3727 -0.0011 -0.3679
    1W        W39857  16.481   2.436   8.625 -0.3939  0.2284  0.0550
    1W        W39858  11.767  21.821   1.502  0.0022 -0.2579 -0.2072
    1W        W39859  10.104  27.687   7.415 -0.0073  0.0232 -0.0794
    1W        W39860  27.719  27.462   2.090  0.0501 -0.2362 -0.1069
    1W        W39861   7.720   6.339   1.623  0.0692  0.0164 -0.0252
    1W        W39862  15.481  11.680   1.216 -0.4476  0.0567  0.0803
    1W        W39863   8.935  23.434   8.689 -0.0177 -0.0043 -0.0829
    1W        W39864   8.605  19.320   0.675  0.1912  0.1155  0.1745
    1W        W39865   4.475  27.366   2.599  0.1031  0.0469  0.2240
    1W        W39866  16.516   4.993   8.761 -0.3141  0.1221  0.2436
    1W        W39867  22.812  21.589   6.867 -0.0292 -0.0016 -0.0358
    1W        W39868  10.092   7.787   0.310 -0.0333 -0.2643  0.0370
    1W        W39869  13.540  15.052   6.670 -0.0570 -0.0705  0.0605
    1W        W39870  14.903  21.051   0.594  0.1601 -0.2663  0.0749
    1W        W39871   4.423  13.494   6.766  0.0103  0.0117 -0.4202
    1W        W39872  27.036  11.908   7.613 -0.1185  0.1129 -0.0400
    1W        W39873   5.352  26.408   7.251 -0.1407  0.1926 -0.1739
    1W        W39874  26.260  28.152   2.581 -0.0815  0.0117  0.1803
    1W        W39875  17.148   3.147   1.280 -0.0484  0.1065  0.2081
    1W        W39876   5.014   6.479   7.404  0.2770 -0.2133  0.3227
    1W        W39877  23.494   2.362   7.783 -0.0651  0.2092  0.3979
    1W        W39878  12.024  26.149   1.461  0.1715  0.2862 -0.2276
    1W        W39879  28.092  14.637   5.620 -0.5134  0.1168  0.0865
    1W        W39880  21.178  22.141   0.092 -0.0424 -0.0264 -0.1754
    1W        W39881   9.481  26.119   0.485  0.0771 -0.1289 -0.1382
    1W        W39882   8.993  18.274   0.774 -0.0312  0.1458  0.0010
    1W        W39883   6.006  17.393   6.276 -0.0543 -0.2798  0.0767
    1W        W39884   6.350  11.561   2.276 -0.4483  0.0349 -0.1802
    1W        W39885   9.050   2.822   7.163  0.0733 -0.0683 -0.0165
    1W        W39886  10.709  26.465   0.971 -0.1928  0.2039  0.0495
    1W        W39887  25.999   1.993   6.830  0.2592 -0.1280  0.1667
    1W        W39888  14.433  17.435   8.765  0.1536  0.0075 -0.0409
    1W        W39889  26.649  14.404   0.903 -0.1083  0.0483 -0.2664
    1W        W39890  11.443  13.475   1.806  0.1878 -0.1053 -0.0643
    1W        W39891  13.780   7.954   8.449  0.1565 -0.5171  0.1642
    1W        W39892  22.436  13.685   0.732 -0.1385 -0.0487  0.0238
    1W        W39893  29.410  29.152   7.570 -0.0677 -0.1898 -0.4192
    1W        W39894   6.328   5.635   8.909  0.2755  0.1003  0.2063
    1W        W39895  13.648  22.148   8.762  0.0817 -0.2949 -0.1435
    1W        W39896  25.288   1.243   7.947 -0.0204 -0.0442  0.0972
    1W        W39897  26.188  12.387   0.767  0.0958  0.2058  0.0689
    1W        W39898   1.357  14.271   1.298 -0.0734  0.1357  0.0511
    1W        W39899  22.327  16.739   6.135  0.0209  0.3597 -0.1623
    1W        W39900   3.494  26.566   9.178 -0.2406 -0.1458  0.0336
    1W        W39901   7.322  17.597   0.945 -0.0223 -0.3271 -0.1084
    1W        W39902  23.495   9.127   7.533 -0.2696 -0.0463 -0.0367
    1W        W39903   5.446  14.040   9.052  0.0962  0.0967 -0.0278
    1W        W39904  22.347  25.321   7.775  0.0569 -0.1735  0.3154
    1W        W39905   5.092   7.231   1.506 -0.2994  0.4743 -0.1192
    1W        W39906  28.891  27.886   1.903  0.0016 -0.0485 -0.1068
    1W        W39907   1.298   4.952   7.854 -0.3291 -0.2284  0.2392
    1W        W39908  18.229  22.510   7.677 -0.0975  0.1392  0.1033
    1W        W39909  29.576  23.214   5.746 -0.1539  0.0840 -0.0880
    1W        W39910  11.756  26.119   7.816  0.1057 -0.1522 -0.1436
    1W        W39911   8.438  23.841   0.017  0.1263 -0.0751  0.0083
    1W        W39912  17.336   2.095   8.857  0.1599  0.0953 -0.2441
    1W        W39913  22.596  22.630   8.195 -0.1823  0.0189  0.3551
    1W        W39914   8.822  11.321   2.527  0.1359  0.0505  0.1033
    1W        W39915   4.982  15.245   0.595 -0.4457 -0.1129 -0.1083
    1W        W39916  26.493   4.671   2.423  0.1420 -0.6050 -0.2774
    1W        W39917  21.556  18.053   8.358  0.0474  0.4805 -0.1868
    1W        W39918   7.352   0.170   8.146 -0.1163  0.1252  0.1976
    1W        W39919   6.319  10.134   9.430 -0.0554  0.1710  0.0307
    1W        W39920   9.779   3.877   1.512 -0.0783  0.1559 -0.0257
    1W        W39921  18.854  26.955   2.316 -0.0562 -0.4369  0.2382
    1W        W39922  21.793  28.692   1.150  0.3169 -0.0134 -0.1796
    1W        W39923  22.051  15.275   6.660  0.0243 -0.0310  0.2360
    1W        W39924  15.038  10.423   8.851 -0.0302 -0.0960  0.1310
    1W        W39925   9.015   0.813   2.881 -0.0138 -0.0837 -0.1722
    1W        W39926  22.122  18.069   1.554  0.2112 -0.0512  0.3726
    1W        W39927   8.342   0.274   0.193  0.1145 -0.0878 -0.2441
    1W        W39928  25.452  26.017   1.474  0.0159 -0.0035 -0.0218
    1W        W39929  21.118   8.457   1.806  0.0022  0.3331 -0.0063
    1W        W39930  20.158  17.669   0.725  0.1780  0.2569  0.1393
    1W        W39931  15.475   3.329   7.942  0.3383  0.1175 -0.0394
    1W        W39932  28.807  13.382   9.173  0.0614  0.1781  0.2740
    1W        W39933  17.574   1.457   7.682 -0.1172  0.2098  0.0938
    1W        W39934  15.774  23.991   9.381  0.0835 -0.0346  0.2135
    1W        W39935  17.918  18.089   0.557  0.2934 -0.0771 -0.4697
    1W        W39936  24.786  18.593   1.732  0.3809  0.0152  0.0015
    1W        W39937  12.339  23.120   0.803 -0.1119  0.2673 -0.1354
    1W        W39938  22.382  21.935   8.630 -0.0417  0.0638  0.1000
    1W        W39939  13.760  28.611   0.344  0.0244 -0.4140 -0.0704
    1W        W39940  16.868   2.209   7.888  0.1294  0.1019  0.1224
    1W        W39941  26.218   1.820   8.183 -0.1182  0.0173  0.1577
    1W        W39942  27.760   1.610   1.571 -0.0176 -0.1337  0.2102
    1W        W39943   3.293  20.647   7.653 -0.0079  0.2074  0.0405
    1W        W39944  21.282  25.654   3.110  0.1421  0.0861 -0.3703
    1W        W39945   6.708  25.838   7.671  0.0284 -0.0398 -0.2459
    1W        W39946  22.205   2.984   7.053  0.0576 -0.0646  0.0887
    1W        W39947  24.029  10.947   1.700 -0.0689  0.0644 -0.2037
    1W        W39948  18.190  21.652   0.049 -0.0639 -0.1574 -0.1607
    1W        W39949  14.153  24.509   7.253 -0.2771 -0.2247  0.2052
    1W        W39950   7.305  19.689   0.770  0.1842 -0.1338  0.0053
    1W        W39951  23.661  21.751   1.504  0.0677 -0.0574  0.1445
    1W        W39952  27.345  28.759   0.592 -0.0452 -0.2582 -0.1327
    1W        W39953  17.810   5.989   7.650 -0.2071  0.0746 -0.2318
    1W        W39954  28.956  16.387   0.452  0.2876  0.0833  0.0192
    1W        W39955  15.724  13.700   1.711  0.0011  0.0985  0.3082
    1W        W39956   1.877  20.663   9.148 -0.0300 -0.3806 -0.0345
    1W        W39957  29.487   4.991   1.224 -0.1499  0.1809 -0.2313
    1W        W39958  18.979  12.730   0.078 -0.1085 -0.2307  0.0110
    1W        W39959   2.376  12.330   2.293 -0.1062  0.0517  0.0612
    1W        W39960   1.081   2.510   8.479  0.2487  0.3204 -0.0860
    1W        W39961   6.865  23.183   6.513 -0.0498  0.1408  0.0257
    1W        W39962  23.885  24.882   2.529 -0.2222  0.1107 -0.0516
    1W        W39963   4.389  22.436   1.846 -0.1226 -0.1012 -0.0856
    1W        W39964   1.074  17.079   0.309 -0.0578  0.1366  0.2684
    1W        W39965  16.225   6.210   8.510 -0.1021 -0.0026 -0.1297
    1W        W39966   8.386  26.376   2.219  0.0963 -0.1074  0.1450
    1W        W39967   3.920  17.626   6.420 -0.0767  0.0890  0.0555
    1W        W39968  15.136  28.201   0.010 -0.0006  0.1651 -0.0146
    1W        W39969   1.213   1.731   0.058  0.0199 -0.0830 -0.0242
    1W        W39970   3.791  15.267   2.385 -0.3636 -0.1644  0.0499
    1W        W39971   0.022  22.836   6.505 -0.0461 -0.1468  0.0961
    1W        W39972  21.156   1.296   2.329  0.1668 -0.2656  0.1087
    1W        W39973  10.493  24.888   2.257  0.1603  0.3110  0.3596
    1W        W39974  28.633  26.309   1.102  0.1206 -0.2136 -0.0601
    1W        W39975  26.236  18.994   6.842 -0.1272 -0.1558  0.0484
    1W        W39976   7.858  29.749   8.367  0.2299  0.1160  0.3326
    1W        W39977   5.890  25.894   0.563  0.0705  0.0415 -0.2938
    1W        W39978   8.360  10.899   7.390  0.0772 -0.1145 -0.1481
    1W        W39979  28.085  21.836   5.557  0.1676 -0.4160 -0.3353
    1W        W39980   7.191  11.020   1.458 -0.1766  0.0232 -0.2262
    1W        W39981  17.918  23.986   9.263  0.0694  0.0059 -0.4350
    1W        W39982   3.242  12.352   6.229 -0.1379  0.2597  0.0458
    1W        W39983  12.753  10.069   1.692  0.0108  0.0017  0.0605
    1W        W39984   0.044  22.418   7.956  0.0741 -0.0122  0.2495
    1W        W39985   0.236   1.246   1.617  0.2577  0.3152 -0.0058
    1W        W39986  24.712  21.960   3.489 -0.1954 -0.3347  0.0636
    1W        W39987   2.092   6.281   2.040 -0.1067  0.0467  0.2943
    1W        W39988  15.409  21.966   0.121  0.0071 -0.0938 -0.1301
    1W        W39989  22.231   3.835   3.004 -0.2468  0.0200 -0.0199
    1W        W39990  13.222   3.431   7.423 -0.2959 -0.2241 -0.2196
    1W        W39991  13.274  26.509   2.936 -0.0282  0.0128  0.2455
    1W        W39992  25.853  24.660   2.493 -0.0076 -0.0851 -0.1798
    1W        W39993  24.737  17.058   1.805 -0.1090  0.1139 -0.1102
    1W        W39994   8.513  21.093   0.394  0.0723 -0.2083  0.1502
    1W        W39995  21.095  15.740   6.835 -0.3012  0.2354 -0.2737
    1W        W39996   4.556  17.833   9.323  0.3915 -0.0228 -0.0874
    1W        W39997   7.990  19.348   1.417 -0.2101 -0.0128  0.3244
    1W        W39998  22.570   1.404   0.484  0.2654 -0.1139 -0.0970
    1W        W39999   9.521  19.067   9.128 -0.1178  0.2328 -0.2349
    1W        W40000   9.861  12.782   7.047  0.1658  0.0900 -0.1510
    1W        W40001   6.854  22.579   1.815 -0.0513 -0.6660 -0.0344
    1W        W40002  21.347  20.754   0.713 -0.1049 -0.0444 -0.1437
    1W        W40003  17.888   7.902   1.333 -0.2171  0.0759 -0.0002
    1W        W40004   7.454  26.399   2.211 -0.1168 -0.0913  0.1025
    1W        W40005  22.689   4.183   7.593  0.0786 -0.2474  0.0170
    1W        W40006  26.570   2.459   0.136  0.0484  0.3388 -0.3055
    1W        W40007  28.076   1.388   0.441  0.0912 -0.0760 -0.2320
    1W        W40008  15.890  11.547   8.099  0.2266 -0.1589  0.0468
    1W        W40009  20.581  27.261   7.955  0.1358  0.1824  0.1315
    1W        W40010  23.130   8.345   2.345 -0.0531 -0.1745  0.0129
    1W        W40011  23.356  17.435   1.451 -0.0894  0.2307 -0.2967
    1W        W40012  24.475  13.778   1.018  0.1933 -0.2160 -0.4202
    1W        W40013   6.132  18.204   2.741  0.3543 -0.2901  0.2630
    1W        W40014   8.618  23.455   1.226 -0.1916  0.2596  0.0321
    1W        W40015  26.810  23.184   7.771 -0.3584  0.4961 -0.1257
    1W        W40016  27.415  17.303   9.442  0.0124  0.0045 -0.3311
    1W        W40017  25.858   4.880   8.638 -0.1968  0.0815 -0.5218
    1W        W40018  10.160  21.860   9.107 -0.0520  0.0238  0.1365
    1W        W40019   3.966   7.641   2.630  0.1565  0.1459 -0.0022
    1W        W40020  25.908  11.944   1.971 -0.1258  0.1147  0.2393
    1W        W40021  24.167  13.365   7.711  0.2575  0.1056  0.1056
    1W        W40022  19.541  29.745   2.598 -0.2338  0.1860 -0.0023
    1W        W40023   0.160  13.871   0.829  0.1585  0.0170  0.0443
    1W        W40024  28.646   3.165   8.256 -0.0650  0.1666  0.2250
    1W        W40025  11.334   3.858   0.230 -0.0904  0.0302  0.0477
    1W        W40026   4.334   1.428   1.782 -0.0427  0.0841  0.0608
    1W        W40027   5.270  11.529   1.749 -0.3641 -0.2273 -0.1816
    1W        W40028   8.797  10.927   0.035  0.2129  0.0907  0.2861
    1W        W40029   5.872  17.003   7.912 -0.1836 -0.1347 -0.0443
    1W        W40030   0.646  20.533   7.256 -0.0231 -0.0623 -0.1789
    1W        W40031  25.560   9.305   8.507  0.1482 -0.1568 -0.2779
    1W        W40032  27.188  16.083   6.341 -0.1169  0.0634 -0.3069
    1W        W40033  19.943  14.969   7.392  0.2380  0.2625 -0.0796
    1W        W40034   9.431   1.683   1.900 -0.2359 -0.1262  0.3006
    1W        W40035   9.522  27.028   2.035  0.1655  0.0950  0.1478
    1W        W40036  27.353  18.706   7.954  0.1455  0.1100 -0.3170
    1W        W40037  27.242   9.836   9.299  0.0496  0.0493 -0.0016
    1W        W40038  11.997   4.194   2.962 -0.0035  0.1481 -0.0167
    1W        W40039  18.904  26.593   1.342 -0.0246 -0.0878 -0.1929
    1W        W40040   1.858   2.240   7.674 -0.1009 -0.1399  0.1913
    1W        W40041  22.194  24.087   0.397 -0.0284  0.0785  0.0780
    1W        W40042   9.011  11.439   9.381  0.0886 -0.0248 -0.0097
    1W        W40043  22.825  12.300   8.877  0.0048 -0.1576 -0.1614
    1W        W40044  23.711   9.744   7.020 -0.1250  0.0384 -0.0429
    1W        W40045   1.245   5.775   0.266  0.0117  0.2608  0.0382
    1W        W40046   9.221  16.965   8.256 -0.1301 -0.0959  0.0955
    1W        W40047   8.631   2.103   1.475 -0.1878  0.0824  0.3625
    1W        W40048  28.413   3.972   7.149  0.2469  0.1835 -0.0410
    1W        W40049  14.189  12.577   8.398 -0.1867 -0.0224 -0.1159
    1W        W40050   9.780  25.719   7.813  0.2536  0.0323 -0.0081
    1W        W40051   8.863  17.329   8.345 -0.3138  0.0013 -0.4221
    1W        W40052  17.454  23.124   7.945 -0.0962  0.1397  0.1863
    1W        W40053  17.883  13.199   7.281  0.4628  0.2100 -0.0237
    1W        W40054  25.177   2.377   0.103 -0.0727  0.1999 -0.3959
    1W        W40055  23.718  24.727   0.732 -0.1577  0.2906 -0.0849
    1W        W40056  18.051  13.520   1.543  0.1512  0.0802 -0.1530
    1W        W40057  26.447  28.010   3.220 -0.0382 -0.1148  0.1376
    1W        W40058   5.922  10.698   2.220 -0.0990  0.0219 -0.3220
    1W        W40059  27.207  29.189   9.244  0.1394 -0.0588 -0.1122
    1W        W40060  27.434  18.144   0.577  0.2849  0.3012 -0.0173
    1W        W40061   2.800   8.406   0.503  0.2257 -0.0870 -0.0810
    1W        W40062   2.840  28.156   0.056  0.0093 -0.1345 -0.2445
    1W        W40063   1.778  24.393   6.099  0.1230 -0.0060  0.1774
    1W        W40064   4.032   8.072   8.303 -0.3475  0.0670 -0.1185
    1W        W40065  19.331  23.122   2.550 -0.0587  0.0635 -0.0360
    1W        W40066   1.106   9.042   1.676  0.1425 -0.2102  0.0558
    1W        W40067   7.658  14.206   7.465  0.0024 -0.0559  0.0668
    1W        W40068  25.153   0.157   2.861 -0.0760 -0.0771  0.0136
    1W        W40069  12.476   4.168   2.450  0.0325  0.1744 -0.0496
    1W        W40070  18.405   9.283   0.631  0.0156  0.1256 -0.4122
    1W        W40071  28.354  29.413   2.164 -0.0764  0.0553  0.1085
    1W        W40072  12.660  28.657   0.757  0.0698 -0.2712 -0.0433
    1W        W40073   7.307  14.521   1.694  0.1802 -0.1202 -0.2555
    1W        W40074  25.123  11.977   8.457 -0.0629  0.1047 -0.0933
    1W        W40075  26.402  28.761   6.855  0.0326  0.2078  0.1325
    1W        W40076   2.259  26.083   1.529  0.1715  0.1522 -0.1471
    1W        W40077   5.007  18.991   1.980 -0.3439 -0.3875 -0.4482
    1W        W40078  19.097  15.647   0.196 -0.0307  0.2278 -0.3147
    1W        W40079  18.501   3.548   2.883 -0.0067  0.1589 -0.0698
    1W        W40080  28.348   3.065   7.508 -0.3619  0.0103 -0.2732
    1W        W40081  26.025  27.071   8.336  0.0161  0.0160 -0.0804
    1W        W40082  22.384  24.103   0.877  0.3545 -0.1741  0.0706
    1W        W40083  19.957   5.711   0.644  0.1223 -0.0137  0.3297
    1W        W40084   3.101  29.328   3.459  0.0522 -0.0035  0.2135
    1W        W40085  11.855  13.601   0.631  0.0130 -0.0196  0.4560
    1W        W40086  13.896   4.427   7.382  0.0036 -0.1022 -0.0187
    1W        W40087  18.013   4.703   2.498 -0.1236 -0.1538  0.0041
    1W        W40088  12.101  26.894   6.857 -0.0504  0.0779  0.0217
    1W        W40089  17.583  14.466   9.414 -0.0706 -0.0427  0.1488
    1W        W40090  21.147   7.895   6.601  0.1294  0.1128 -0.3510
    1W        W40091  26.931  28.154   9.351 -0.1842 -0.0397  0.0107
    1W        W40092  24.407  27.407   1.796  0.0087  0.0995  0.0235
    1W        W40093  16.853  16.301   1.811  0.1670  0.2726  0.0774
    1W        W40094   4.034   1.882   1.960  0.0885  0.0244  0.0173
    1W        W40095  27.318  21.848   3.095 -0.1490 -0.1660  0.0529
    1W        W40096  10.102  19.959   6.046  0.0838 -0.0382 -0.1191
    1W        W40097  14.030  21.765   8.103  0.1663  0.1394  0.1053
    1W        W40098   0.363  26.446   0.985  0.2254  0.0341 -0.0115
    1W        W40099  17.726   6.673   0.696 -0.0093  0.0284  0.0580
    1W        W40100  20.657   3.865   7.238  0.1877  0.2195  0.1845
    1W        W40101   5.675   7.599   8.968 -0.1301 -0.1180  0.0522
    1W        W40102  21.723   1.669   3.035  0.2068 -0.0699  0.1384
    1W        W40103  21.743  14.161   0.395  0.1021  0.1160  0.1593
    1W        W40104   9.499   6.873   2.860  0.2117 -0.1012  0.0171
    1W        W40105  25.777   1.456   0.917 -0.0185  0.2289  0.2396
    1W        W40106  26.887  16.923   7.688 -0.2394 -0.1062 -0.0136
    1W        W40107  24.051  15.773   7.852  0.0119  0.2218  0.2020
    1W        W40108   8.138   3.082   9.421  0.0391  0.0731  0.0243
    1W        W40109   5.673  21.874   1.516 -0.0535  0.0441  0.0570
    1W        W40110  21.869  24.534   7.862 -0.1278  0.1167 -0.0981
    1W        W40111  27.085  29.034   6.286  0.1621 -0.0219 -0.0144
    1W        W40112   1.322  22.993   0.539 -0.3017  0.1544  0.1608
    1W        W40113  26.360  23.623   7.097 -0.1107 -0.0827 -0.0009
    1W        W40114   7.447  11.603   8.763 -0.0889 -0.1734  0.1498
    1W        W40115   5.030  27.354   2.705 -0.3019  0.1565 -0.5147
    1W        W40116   4.269  23.948   6.592 -0.2424  0.2041 -0.3078
    1W        W40117  10.458  14.936   1.935 -0.0869 -0.3506 -0.1876
    1W        W40118   0.565  11.554   1.098 -0.1808  0.1042  0.0999
    1W        W40119  20.351   8.009   7.326 -0.1489 -0.1155  0.2467
    1W        W40120  18.273   9.165   7.003  0.1634  0.0755  0.1191
    1W        W40121   9.248  29.817   1.621 -0.1137  0.2895  0.4571
    1W        W40122  11.694   8.221   0.984 -0.2041 -0.0683  0.4310
    1W        W40123   1.038  28.413   7.018 -0.0229  0.3348 -0.2824
    1W        W40124  18.067  25.814   8.919  0.0087  0.0672  0.1100
    1W        W40125  16.665   7.726   0.674 -0.1204 -0.0763  0.3509
    1W        W40126  11.515  16.992   9.403 -0.1221 -0.0776 -0.2918
    1W        W40127   9.393   1.621   0.917 -0.2722 -0.1120  0.0386
    1W        W40128  17.653  21.737   0.325 -0.0742 -0.0937  0.1259
    1W        W40129  18.220  15.751   1.649  0.1137 -0.2591 -0.1529
    1W        W40130   4.024   2.098   8.462 -0.0089  0.0143  0.1203
    1W        W40131  19.096  21.264   0.115  0.1672 -0.0630 -0.0026
    1W        W40132   0.922   2.718   9.404  0.1848  0.0748 -0.1600
    1W        W40133  15.661  24.597   0.531  0.1639  0.1018  0.1577
    1W        W40134   9.275  18.208   7.079  0.0281  0.1701 -0.0340
    1W        W40135  14.141   1.988   1.939  0.0756  0.0271 -0.1198
    1W        W40136   2.523  11.030   7.155  0.0582 -0.2163  0.0836
    1W        W40137  20.565   0.899   0.197  0.0532  0.1495  0.0411
    1W        W40138  24.114   7.181   8.911 -0.1993  0.0964 -0.1040
    1W        W40139  16.647  27.965   7.626  0.1128  0.1733 -0.3826
    1W        W40140  29.081   7.323   7.957 -0.3892 -0.1489 -0.0349
    1W        W40141   6.666  11.786   1.478  0.1321  0.1849 -0.3257
    1W        W40142  29.076   0.297   1.243  0.1658 -0.2574 -0.0382
    1W        W40143  21.660   5.367   1.789 -0.0890  0.1703 -0.3437
    1W        W40144   6.051  22.265   0.937 -0.1187 -0.0831  0.0628
    1W        W40145  13.892  23.155   0.920 -0.1338 -0.0461 -0.3558
    1W        W40146   1.954  19.192   6.354 -0.1098 -0.3051  0.0063
    1W        W40147  15.214  10.310   7.878  0.0775 -0.1883 -0.0563
    1W        W40148   2.350   9.535   0.898  0.0083 -0.0945 -0.0705
    1W        W40149   0.429  26.522   2.293 -0.2849  0.1985  0.0623
    1W        W40150  20.599  11.352   1.698 -0.0074 -0.0345 -0.0359
    1W        W40151  26.843   9.844   8.867 -0.0404 -0.0990  0.4083
    1W        W40152  25.812  12.727   9.199 -0.1717  0.0089  0.0430
    1W        W40153   3.824  21.200   8.742 -0.1469  0.0391 -0.0578
    1W        W40154  23.701   7.280   8.546 -0.0799 -0.5291  0.2188
    1W        W40155   5.811  23.707   2.804  0.1039 -0.0792 -0.1786
    1W        W40156  12.618  27.061   8.983  0.2996  0.1571  0.2000
    1W        W40157   1.088  25.649   0.293 -0.1005 -0.0304 -0.0849
    1W        W40158   4.920   8.927   1.025 -0.2179 -0.4200 -0.0530
    1W        W40159  23.825  22.890   6.820  0.1382  0.3137 -0.0245
    1W        W40160   2.648  12.833   7.717  0.0621 -0.2146 -0.3219
    1W        W40161  12.876   7.938   0.774 -0.1405 -0.0680 -0.0410
    1W        W40162   4.480  21.372   5.463  0.2249 -0.1040  0.1352
    1W        W40163  10.216  29.041   7.468  0.1648 -0.1114 -0.1776
    1W        W40164  23.950   0.691   3.095 -0.0908 -0.0971 -0.1220
    1W        W40165  23.265   5.202   0.530  0.1469 -0.1986 -0.2848
    1W        W40166  21.481  25.753   1.119  0.2757 -0.2154 -0.2527
    1W        W40167   2.062   8.042   8.963  0.0788 -0.1580  0.0307
    1W        W40168  23.329  25.060   8.227  0.0503 -0.3788  0.0058
    1W        W40169  29.520  26.964   7.067  0.2460 -0.0663 -0.0535
    1W        W40170  16.973   4.689   7.037  0.0219  0.0938  0.0508
    1W        W40171   6.034  14.026   1.313 -0.2404  0.2769 -0.3748
    1W        W40172  11.388  24.831   6.483  0.5076  0.2422  0.2860
    1W        W40173   0.231  26.192   2.012  0.2380 -0.1671  0.1295
    1W        W40174  18.997   7.228   6.872  0.0514  0.4494 -0.0613
    1W        W40175  27.410   5.613   7.951 -0.0355 -0.0293  0.0332
    1W        W40176   6.763   6.594   8.409  0.0597  0.1547 -0.2301
    1W        W40177   0.498  22.930   0.754  0.1449 -0.0123  0.4580
    1W        W40178  20.285  14.556   8.960  0.4248  0.1043 -0.2368
    1W        W40179   8.504   4.083   2.114  0.3218  0.1719  0.0332
    1W        W40180  16.249  17.765   1.991  0.0429  0.1469  0.0752
    1W        W40181  21.745   0.412   8.095 -0.1080 -0.2234 -0.0277
    1W        W40182  17.979  22.360   7.173  0.0956 -0.2600 -0.2130
    1W        W40183   2.254   3.802   2.443 -0.2336 -0.0608 -0.0737
    1W        W40184   5.981  11.626   8.205  0.3339  0.3153  0.0024
    1W        W40185  13.730  29.453   7.992  0.0685  0.1232 -0.2609
    1W        W40186   2.489  18.206   1.933 -0.2482  0.0356 -0.1074
    1W        W40187   8.772  26.503   6.832 -0.0395 -0.1709 -0.4104
    1W        W40188   7.264  10.259   1.858  0.0228 -0.0968 -0.0777
    1W        W40189   3.395  16.723   0.061 -0.1065  0.1967 -0.0098
    1W        W40190   8.602  18.712   1.237  0.2447  0.0410 -0.0802
    1W        W40191  19.314  29.393   1.085 -0.3878  0.0673 -0.0008
    1W        W40192  12.491   9.749   1.983 -0.0213 -0.3850  0.2136
    1W        W40193   6.939   2.998   0.396 -0.1868 -0.2352 -0.0612
    1W        W40194  24.104  23.316   7.489 -0.1312 -0.0493  0.3785
    1W        W40195   7.975   9.339   8.233 -0.2776 -0.0097  0.0888
    1W        W40196  14.985  23.863   0.920  0.1889 -0.3598  0.0801
    1W        W40197   7.828  26.943   2.681 -0.2868  0.1245  0.0323
    1W        W40198  11.092   0.706   8.586  0.2311  0.3184 -0.0597
    1W        W40199  25.293   8.054   0.694 -0.0388  0.1692 -0.2582
    1W        W40200   8.705   3.225   1.947 -0.1170 -0.1767 -0.0348
    1W        W40201  24.671   3.118   9.310  0.2820  0.0066 -0.2482
    1W        W40202  15.809  14.007   9.370 -0.0381 -0.1576  0.0332
    1W        W40203  20.783   9.125   7.614  0.3739 -0.0327  0.0099
    1W        W40204  13.308  28.124   3.139  0.1416 -0.2548 -0.2434
    1W        W40205  18.470   4.445   2.642 -0.0961 -0.2490 -0.0302
    1W        W40206  19.755   1.151   7.073  0.2477  0.1420  0.1250
    1W        W40207  10.918  27.529   0.213  0.1602  0.0143  0.0285
    1W        W40208  11.868  26.755   1.452  0.1213  0.0491 -0.1278
    1W        W40209  17.183  26.227   7.217 -0.1877 -0.0708  0.1164
    1W        W40210  16.847  22.401   1.233  0.2577 -0.2684 -0.4275
    1W        W40211  15.705   6.840   1.684  0.0029  0.1205  0.0344
    1W        W40212  18.269  29.653   2.777  0.1621 -0.0166  0.2384
    1W        W40213  24.949  16.801   5.590 -0.0277 -0.2055  0.2074
    1W        W40214  13.004  27.313   8.618  0.0858  0.0803 -0.2492
    1W        W40215   3.830  19.567   2.497  0.0530  0.0617 -0.1766
    1W        W40216   6.211  10.623   1.203  0.0738 -0.1689 -0.0153
    1W        W40217   9.536  23.536   1.255  0.2402 -0.1461 -0.2059
    1W        W40218   4.115  17.042   8.216  0.0019  0.0386 -0.2551
    1W        W40219   9.012  23.599   6.020 -0.0730  0.0861  0.0844
    1W        W40220  15.422   6.557   9.124  0.2538  0.3833  0.1654
    1W        W40221   8.189   1.862   3.112  0.0470  0.0969 -0.5186
    1W        W40222   2.749  11.768   6.504  0.2389 -0.1189  0.0397
    1W        W40223  17.181  23.211   3.022 -0.0036  0.3652 -0.0191
    1W        W40224  13.191  21.100   6.688  0.0030 -0.2904  0.1187
    1W        W40225   1.749   9.112   1.728  0.2601 -0.1877 -0.2420
    1W        W40226  18.490   9.618   1.905 -0.0221  0.0905 -0.0926
    1W        W40227   7.972  10.581   1.544 -0.2646  0.0249  0.0494
    1W        W40228  10.746  17.940   0.424  0.4432 -0.0554  0.1604
    1W        W40229  10.946  25.467   2.810 -0.1079  0.1189 -0.2064
    1W        W40230  29.475  12.598   2.035  0.0059 -0.0668 -0.1521
    1W        W40231   6.184  23.098   0.353  0.1173  0.0097  0.1531
    1W        W40232  28.783  26.051   8.673 -0.1781  0.0793 -0.1282
    1W        W40233  26.690  17.605   2.132 -0.1919 -0.1902  0.0305
    1W        W40234  21.878  20.723   7.926  0.2868  0.1658 -0.0177
    1W        W40235  10.051  25.761   1.717 -0.0336  0.0553  0.0197
    1W        W40236   4.871  14.983   8.869  0.0243 -0.1275  0.1548
    1W        W40237   3.241  18.750   7.106  0.0015 -0.1630  0.1239
    1W        W40238  28.281  16.073   1.979  0.0148  0.0454 -0.1739
    1W        W40239  16.715  26.247   7.077  0.1712 -0.0841 -0.3249
    1W        W40240   4.456   6.826   3.672  0.0329  0.0491 -0.2928
    1W        W40241  18.529   0.547   2.088 -0.0251 -0.0025 -0.2150
    1W        W40242   8.860   6.393   0.178 -0.0238  0.2486  0.0085
    1W        W40243  25.176   8.344   8.254 -0.1467  0.0290  0.0065
    1W        W40244   5.770  19.843   7.722  0.2463  0.1322  0.1252
    1W        W40245   0.590  10.620   9.190  0.1495  0.0065  0.0113
    1W        W40246   2.141  29.344   8.648  0.0317 -0.2227  0.0303
    1W        W40247  24.840   3.861   8.517 -0.1176 -0.0818 -0.1445
    1W        W40248   2.393  27.382   8.077  0.0281 -0.0320 -0.1436
    1W        W40249  13.975  11.569   8.664  0.2656  0.1657 -0.0798
    1W        W40250  24.009   3.423   1.006  0.0106 -0.3655 -0.0412
    1W        W40251  25.945  11.051   8.380 -0.1142  0.1415 -0.0616
    1W        W40252   1.922  27.925   8.585 -0.2032  0.0810  0.2835
    1W        W40253  29.216  12.359   5.672 -0.0069  0.2473 -0.1035
    1W        W40254  27.201  10.257   7.647 -0.1455  0.1985 -0.2005
    1W        W40255   5.136  11.706   7.130 -0.0284 -0.0656 -0.0192
    1W        W40256  16.398  19.070   7.591 -0.4542  0.4180  0.1160
    1W        W40257  29.175  19.308   1.938 -0.1523  0.0381 -0.0519
    1W        W40258   2.492  23.582   1.731 -0.0994  0.3768  0.1473
    1W        W40259  20.561  29.515   3.680  0.2818 -0.4140  0.2216
    1W        W40260   5.537  26.025   2.588 -0.4954  0.4156 -0.2746
    1W        W40261   1.336   1.661   8.031 -0.3265  0.0559  0.0562
    1W        W40262  16.298  20.611   2.789 -0.1899 -0.2364  0.2309
    1W        W40263   8.864  21.470   9.373 -0.2327 -0.0512  0.0003
    1W        W40264  26.387  23.672   2.067 -0.1630  0.0317 -0.1232
    1W        W40265  21.337  28.418   0.389 -0.0655  0.1187 -0.0620
    1W        W40266  26.239   4.595   7.291  0.3764 -0.0143  0.1405
    1W        W40267   5.831  24.377   8.914  0.5154  0.3113  0.1430
    1W        W40268   6.228  28.098   0.638 -0.0621 -0.1377 -0.3163
    1W        W40269  24.271  19.034   2.463  0.1826  0.0166  0.0512
    1W        W40270  24.965  15.228   7.164 -0.2395  0.0576 -0.0756
    1W        W40271  21.747   3.749   0.982  0.0339 -0.1302  0.0787
    1W        W40272   0.129   5.309   0.644 -0.0483  0.1099 -0.0913
    1W        W40273  21.852   7.887   7.132 -0.1969 -0.1883  0.3091
    1W        W40274   3.268  13.783   2.044  0.0029  0.1461  0.2606
    1W        W40275  22.215  20.547   2.106  0.0719  0.0074 -0.3302
    1W        W40276  24.253  23.803   7.686  0.1010 -0.0813  0.1509
    1W        W40277  10.828  17.234   8.408 -0.0553  0.1751  0.0852
    1W        W40278  21.921  21.706   7.309 -0.0667 -0.0558  0.0947
    1W        W40279   2.269  12.510   7.900 -0.0604  0.1519  0.1902
    1W        W40280   3.585  20.933   9.175  0.0078 -0.0792 -0.3540
    1W        W40281  15.397   2.699   2.114 -0.1969  0.0174  0.2135
    1W        W40282  23.559   9.180   0.146  0.1392  0.1395 -0.0861
    1W        W40283   2.443  22.225   8.169 -0.0674  0.2384  0.0493
    1W        W40284  24.048   7.485   1.254  0.1410  0.0325  0.0096
    1W        W40285   3.305  14.317   7.541 -0.0371 -0.1390  0.1977
    1W        W40286  19.456   4.875   6.702 -0.2826  0.0109  0.1544
    1W        W40287   3.040  15.362   7.228 -0.1686 -0.0646  0.0694
    1W        W40288  19.511  21.572   1.105  0.1891 -0.1061  0.0596
    1W        W40289   4.180  17.806   0.839  0.1775  0.5726  0.0638
    1W        W40290   3.972   5.335   2.342  0.1457 -0.0865  0.2211
    1W        W40291  11.672  22.842   8.425 -0.0452  0.2637 -0.4682
    1W        W40292  20.488   6.665   6.813 -0.0345 -0.3403 -0.0338
    1W        W40293   5.664  23.037   9.262 -0.3251  0.0064  0.0622
    1W        W40294  18.514  29.434   2.370  0.1307 -0.1375  0.0176
    1W        W40295  19.411  19.122   0.400  0.1672 -0.1837  0.1235
    1W        W40296  17.572  27.416   2.414  0.1141  0.3330  0.0782
    1W        W40297  18.351  27.087   2.582 -0.2738  0.0009 -0.1341
    1W        W40298   1.929   0.072   3.285 -0.1690  0.0801  0.1068
    1W        W40299   9.023  24.442   1.279  0.0032 -0.0389 -0.0208
    1W        W40300   5.344   4.871   7.472  0.0688 -0.4752 -0.0649
    1W        W40301   7.408   7.623   3.677 -0.0430 -0.0772  0.1170
    1W        W40302  25.905  21.653   9.071  0.0231  0.2629  0.0734
    1W        W40303  19.565   9.739   6.631  0.3229  0.2243 -0.2272
    1W        W40304  27.662  22.481   7.745  0.3408  0.1859  0.3304
    1W        W40305  27.010  19.962   2.954 -0.0714  0.1665 -0.0182
    1W        W40306  15.385   0.458   2.206  0.2094  0.1233  0.1215
    1W        W40307  10.678   2.579   1.759 -0.0000  0.0783 -0.0208
    1W        W40308  15.154  20.686   0.824  0.2036 -0.0665  0.1379
    1W        W40309  15.789  26.420   0.316  0.0935  0.0600  0.3334
    1W        W40310  24.740  29.417   1.475 -0.1849 -0.1208  0.1208
    1W        W40311   3.556   9.412   0.549  0.5252  0.1403 -0.0542
    1W        W40312  10.926  27.853   7.967 -0.1212  0.0238 -0.3009
    1W        W40313   2.020   6.262   0.950  0.1731 -0.1899  0.1512
    1W        W40314   1.714  28.714   2.796 -0.2020 -0.0126 -0.1864
    1W        W40315   1.308   2.306   1.151  0.0201  0.0480 -0.2341
    1W        W40316   7.338  17.120   7.096  0.0152  0.0960 -0.1260
    1W        W40317  28.046   5.332   3.584  0.2209 -0.3081 -0.2975
    1W        W40318  25.404  13.033   0.891  0.0445  0.1176 -0.2442
    1W        W40319  22.383  17.492   0.033  0.1359  0.0201  0.0935
    1W        W40320  13.376   1.541   1.791  0.1279  0.1710  0.0050
    1W        W40321   0.428   1.257   3.048 -0.0483 -0.1491  0.1338
    1W        W40322  27.610  20.438   8.330  0.0645  0.0695  0.0551
    1W        W40323  16.802  21.808   1.404 -0.0187 -0.0177  0.2643
    1W        W40324  29.632  24.846   8.518 -0.0295 -0.2454 -0.0595
    1W        W40325  15.260   1.137   4.130 -0.2121 -0.3520  0.0433
    1W        W40326  18.701   4.946   0.114 -0.2821 -0.5614 -0.1206
    1W        W40327   0.153  17.949   1.215 -0.2024  0.1926 -0.1387
    1W        W40328  16.031  20.983   1.209 -0.1076  0.2825  0.0063
    1W        W40329   1.337  25.522   8.788  0.1126 -0.0571 -0.1296
    1W        W40330  28.120   6.315   2.367 -0.3582 -0.0339 -0.0458
    1W        W40331  19.002  22.352   8.636 -0.1373 -0.0925 -0.1110
    1W        W40332   3.491  25.400   2.309 -0.2183 -0.0555 -0.0155
    1W        W40333   0.412   3.204   8.339 -0.0451 -0.0242  0.2133
    1W        W40334  11.091  25.603   7.140  0.2575 -0.0515 -0.3162
    1W        W40335   0.478   0.006   8.954 -0.2700  0.2013  0.1413
    1W        W40336  16.031  18.043   0.806  0.0496 -0.1151 -0.0412
    1W        W40337  29.138  22.067   8.387 -0.3250 -0.2639 -0.4522
    1W        W40338   2.446   1.373   7.794  0.1860  0.2163  0.4574
    1W        W40339   2.752  29.655   9.292  0.2591 -0.1843  0.1555
    1W        W40340  14.863  14.988   7.827 -0.0159  0.0306 -0.2694
    1W        W40341   2.424   0.870   6.665  0.1479 -0.0476  0.2535
    1W        W40342  17.796  10.572   7.588 -0.1883 -0.0778  0.1834
    1W        W40343  29.583  17.797   8.154 -0.2752 -0.1372  0.1800
    1W        W40344  11.150   9.379   7.446  0.0268 -0.2295 -0.2933
    1W        W40345  25.708   1.105   9.218  0.1294  0.4049  0.2095
    1W        W40346  17.577  14.558   1.994 -0.2439 -0.2683 -0.0502
    1W        W40347  13.028   8.627   7.169 -0.4372 -0.0584  0.0191
    1W        W40348   7.715  22.845   8.932 -0.4761 -0.1392  0.0969
    1W        W40349  23.363   1.375   0.244 -0.1834  0.0123  0.1206
    1W        W40350  18.387  11.462   8.652  0.0668 -0.0832 -0.3320
    1W        W40351   1.165  24.391   7.844  0.3808 -0.1986 -0.0096
    1W        W40352   7.602  12.291   9.324 -0.2702 -0.1622 -0.4196
    1W        W40353  18.279  26.217   2.299 -0.1901  0.4557  0.3983
    1W        W40354  11.230   3.589   0.940  0.0228 -0.2704  0.6412
    1W        W40355  28.373  17.083   8.766 -0.0283 -0.0196 -0.0903
    1W        W40356  22.666   5.208   9.050 -0.1583  0.0704 -0.1361
    1W        W40357  29.628  12.872   1.219 -0.0648  0.0625 -0.0374
    1W        W40358   7.034  26.402   0.955 -0.0837  0.3422 -0.4433
    1W        W40359   8.448  10.515   8.858  0.0209  0.1818 -0.0764
    1W        W40360   5.925  26.843   6.875 -0.0081 -0.3198  0.0185
    1W        W40361  22.474   5.007   8.125 -0.0583 -0.0075 -0.0086
    1W        W40362  26.250   2.490   7.833 -0.1035  0.1178 -0.3304
    1W        W40363   1.428   9.467   1.765 -0.2187  0.0365  0.0735
    1W        W40364   5.421   6.492   8.491 -0.4075 -0.0567 -0.0130
    1W        W40365  16.374  17.981   7.322 -0.0739  0.0853  0.0648
    1W        W40366  24.067  25.257   3.509 -0.1829  0.4986  0.1021
    1W        W40367   6.057  15.569   0.099 -0.1137 -0.1015  0.1504
    1W        W40368   1.842  28.208   2.003  0.1873 -0.0078 -0.2236
    1W        W40369  12.319  24.789   7.331  0.0362  0.2748 -0.0594
    1W        W40370   5.489  12.134   9.373 -0.0630 -0.2721 -0.0602
    1W        W40371  14.331   7.897   2.024  0.2696  0.2892 -0.0239
    1W        W40372   9.604  16.316   0.949  0.2319 -0.5557 -0.1207
    1W        W40373  11.783   2.368   4.357 -0.2504  0.1549 -0.1244
    1W        W40374  20.455   2.636   8.080  0.2225  0.2586 -0.0842
    1W        W40375   9.366   5.496   1.427  0.3467  0.1895 -0.3176
    1W        W40376   6.987   0.627   8.822  0.2292  0.1905 -0.0763
    1W        W40377  15.431  16.184   1.330 -0.3811 -0.0081  0.2646
    1W        W40378  18.650  16.506   1.740 -0.1290 -0.1002  0.0947
    1W        W40379  22.411  21.881   2.589 -0.3544 -0.1067 -0.0808
    1W        W40380   0.922  20.205   0.253  0.0395 -0.0033 -0.0500
    1W        W40381   4.198  19.124   6.839 -0.1624  0.0237 -0.0544
    1W        W40382  25.075   2.238   0.661  0.0029  0.3934 -0.3987
    1W        W40383  11.197   2.079   8.978 -0.0359  0.1935 -0.2182
    1W        W40384  28.300   1.605   2.990  0.0154  0.0662  0.2615
    1W        W40385  13.222  21.500   8.176 -0.0698 -0.1982  0.3835
    1W        W40386   7.137  20.047   7.079  0.0924 -0.2907 -0.0354
    1W        W40387  28.176  12.024   6.118 -0.0185  0.2753  0.0435
    1W        W40388  17.514   9.789   6.662 -0.0146  0.5036 -0.1142
    1W        W40389  17.888  18.295   8.179  0.0382 -0.1552  0.1231
    1W        W40390  27.934  13.249   0.791  0.1335  0.0227  0.0707
    1W        W40391  14.884  21.874   6.689  0.0803 -0.1633 -0.0252
    1W        W40392  13.356   6.786   8.308  0.0783 -0.2284  0.2014
    1W        W40393  12.046   8.295   7.958 -0.0353  0.1354 -0.1102
    1W        W40394  23.907  29.696   8.828 -0.1043  0.0448  0.1678
    1W        W40395  14.224  23.046   7.304  0.0916 -0.0543 -0.0653
    1W        W40396  19.709   2.714   3.672 -0.0687  0.1641 -0.0363
    1W        W40397  19.326  20.955   3.414 -0.0036 -0.0192 -0.1178
    1W        W40398  24.310  10.836   8.757  0.4635  0.0665  0.0195
    1W        W40399  11.032  24.212   2.451 -0.1796 -0.2694 -0.1029
    1W        W40400  20.296  22.122   1.522 -0.0912 -0.0978  0.0247
    1W        W40401  19.106  16.098   8.226  0.0828  0.0871 -0.0479
    1W        W40402   2.655  22.352   0.450  0.0621  0.0701  0.0230
    1W        W40403   2.359   3.465   7.590  0.0524 -0.0586 -0.1467
    1W        W40404  23.526  29.120   0.578  0.1517 -0.0817 -0.0283
    1W        W40405  17.218  23.466   3.509  0.1168  0.1524 -0.2042
    1W        W40406   0.710  19.400   7.251  0.1947  0.0424  0.1588
    1W        W40407   4.325  14.293   1.412 -0.0876  0.2063 -0.2165
    1W        W40408  28.398   9.113   7.971  0.0947  0.0907 -0.1171
    1W        W40409  12.061  19.103   1.643 -0.0160  0.0183  0.5244
    1W        W40410   3.519  27.198   9.334  0.3494 -0.2678  0.0429
    1W        W40411  17.993  20.317   7.871  0.3972 -0.1894  0.5165
    1W        W40412  29.452   1.164   6.770 -0.2681  0.0690  0.1284
    1W        W40413   5.064   0.389   8.311 -0.1222  0.2624  0.0844
    1W        W40414  19.708   5.312   0.898  0.0468 -0.1725  0.3293
    1W        W40415  29.266   8.549   8.691 -0.1231 -0.0678  0.0483
    1W        W40416  15.638   8.214   0.737 -0.4169  0.0784 -0.3594
    1W        W40417  26.277  16.307   2.578  0.1678 -0.0195  0.0510
    1W        W40418   0.330  26.996   2.288 -0.0793 -0.4164  0.1021
    1W        W40419  28.835  20.401   9.316  0.0680 -0.2273  0.0937
    1W        W40420  25.169   2.065   7.075  0.0206  0.0880  0.0670
    1W        W40421  29.204  24.925   8.064 -0.0095  0.1090  0.3264
    1W        W40422   1.546   4.345   8.509  0.0180 -0.1724 -0.2477
    1W        W40423  20.733  21.349   7.996  0.2681 -0.0848 -0.2609
    1W        W40424  22.082   1.541   7.261  0.1698 -0.3225  0.0185
    1W        W40425   1.756   2.101   2.946 -0.1240  0.0672  0.1139
    1W        W40426  28.873   4.349   8.971 -0.0089 -0.3815 -0.0687
    1W        W40427  29.437   9.923   1.875  0.0978  0.1848  0.3360
    1W        W40428  16.237  26.469   0.590 -0.1803 -0.0068  0.5013
    1W        W40429  23.996   6.602   8.051  0.1906 -0.3440  0.1253
    1W        W40430   5.842  13.212   6.435  0.0254  0.1689 -0.1683
    1W        W40431  10.094   1.797   7.435 -0.0358 -0.3311 -0.2908
    1W        W40432   0.759  22.464   0.783  0.0705 -0.0729  0.0458
    1W        W40433  25.938   2.536   9.235 -0.2147 -0.0519 -0.1011
    1W        W40434  10.550   0.877   8.849 -0.0050 -0.2467  0.0834
    1W        W40435  29.657  10.567   2.279  0.1762 -0.0717  0.0480
    1W        W40436  21.698  18.112   7.599  0.0050  0.1313  0.1556
    1W        W40437   1.067  27.000   1.596 -0.0512  0.0400  0.3338
    1W        W40438  26.230  13.057   1.366 -0.3276  0.0073 -0.0323
    1W        W40439  14.018  24.713   2.543  0.1157 -0.0576 -0.2522
    1W        W40440  15.997   3.813   6.400 -0.0381 -0.1276  0.0794
    1W        W40441  18.695  27.443   0.729  0.1065 -0.0055 -0.0005
    1W        W40442  12.808  17.608   9.014  0.0017  0.1890 -0.0394
    1W        W40443  16.363   0.024   7.264  0.2514 -0.2636  0.0704
    1W        W40444   3.200  15.647   1.821 -0.2839 -0.5068  0.0879
    1W        W40445   2.000   9.127   7.088 -0.1385  0.1155 -0.0378
    1W        W40446  11.960   5.720   0.961  0.3119  0.1384  0.1221
    1W        W40447   4.395  28.367   6.566  0.1166 -0.2552 -0.2096
    1W        W40448  19.549  29.518   9.226 -0.4650  0.1583 -0.0475
    1W        W40449   5.779  18.455   1.059 -0.0773 -0.1780  0.0890
    1W        W40450   5.214   1.319   2.256  0.1528  0.1996  0.2057
    1W        W40451   2.678  27.495   7.101  0.0683 -0.0870  0.0478
    1W        W40452   1.146   9.956   0.042 -0.2221  0.3081 -0.1553
    1W        W40453  12.667  21.534   8.230  0.1534  0.1897  0.0856
    1W        W40454  17.485  26.445   8.534 -0.0145 -0.1023 -0.0240
    1W        W40455  27.423  22.866   2.176  0.0327  0.0168 -0.3956
    1W        W40456  23.125  14.570   7.153 -0.1824  0.3810 -0.1547
    1W        W40457  20.734  10.009   8.654 -0.2061  0.1616  0.1421
    1W        W40458  22.526   3.951   8.010  0.1711  0.1524  0.1350
    1W        W40459  12.076  25.764   2.405 -0.4458 -0.1881  0.1592
    1W        W40460   7.231   1.467   9.328 -0.3222  0.2854  0.0548
    1W        W40461  25.357  12.830   0.414  0.1019  0.1504  0.0344
    1W        W40462  20.398   0.073   7.562  0.1386  0.0179  0.2213
    1W        W40463  22.789   3.169   3.140  0.2716  0.0298 -0.0345
    1W        W40464  23.130   5.593   7.924 -0.1047  0.1151  0.3774
    1W        W40465   8.064  16.399   6.285  0.2086 -0.0373  0.1622
    1W        W40466  18.659  21.724   1.591  0.2335 -0.1236 -0.3246
    1W        W40467   4.167  13.903   2.619  0.2009 -0.1874  0.1844
    1W        W40468   8.201  21.556   2.067 -0.1628 -0.2277 -0.0349
    1W        W40469  16.943  16.777   8.748 -0.0178 -0.2096  0.0297
    1W        W40470  19.227  28.214   6.749 -0.1474 -0.0455 -0.0245
    1W        W40471  18.797   5.689   7.257 -0.0360 -0.1636 -0.3994
    1W        W40472   9.217  20.406   8.965 -0.0421  0.3010 -0.3855
    1W        W40473   3.442   6.152   8.924 -0.1244 -0.2147 -0.3350
    1W        W40474   4.598  21.982   1.556  0.1348  0.1447 -0.0552
    1W        W40475  26.900  15.811   8.881  0.0420 -0.1589 -0.1963
    1W        W40476  16.243  29.023   6.942  0.1201  0.2002  0.1988
    1W        W40477  23.840  26.867   8.489  0.2947  0.2141 -0.3242
    1W        W40478   0.845   4.489   7.261 -0.3753 -0.0647 -0.0464
    1W        W40479  15.750  25.624   8.543  0.2108 -0.0849  0.2705
    1W        W40480  17.847  28.880   8.157  0.2221 -0.2795 -0.0220
    1W        W40481   3.217   8.125   0.547  0.0628 -0.0950 -0.0041
    1W        W40482   3.887   9.376   0.175 -0.0661 -0.1950  0.1827
    1W        W40483  11.996   9.668   1.630 -0.0990  0.0853  0.2008
    1W        W40484  23.333   4.429   2.117  0.1669  0.0848 -0.1245
    1W        W40485   0.678  16.960   1.644  0.0451  0.3438  0.0622
    1W        W40486  18.084  26.636   2.752  0.1033  0.2061  0.0524
    1W        W40487   7.679  26.341   8.356 -0.0580  0.2729  0.2137
    1W        W40488   9.691  27.814   2.576 -0.2149  0.2601  0.0175
    1W        W40489  10.308  17.917   1.392 -0.0617 -0.1021 -0.0691
    1W        W40490  26.536  13.190   7.300  0.0803  0.0089 -0.0387
    1W        W40491   2.654   8.451   7.882  0.2012 -0.1399  0.2900
    1W        W40492  13.594  22.834   2.167 -0.0534  0.1993  0.2031
    1W        W40493   0.896  29.058   7.127  0.1284  0.2869  0.0894
    1W        W40494  26.712  29.126   9.212  0.0744 -0.1926  0.1164
    1W        W40495   7.693  14.994   1.967 -0.2332 -0.0014 -0.0522
    1W        W40496  20.026  19.439   1.926 -0.0367 -0.0708 -0.3147
    1W        W40497  24.497  13.138   8.526 -0.3657 -0.6302  0.1926
    1W        W40498  19.679  16.753   0.222 -0.0769 -0.0620  0.0952
    1W        W40499  28.663  12.644   6.904  0.1829  0.1861  0.1102
    1W        W40500   9.754   5.441   9.428 -0.1025 -0.0853 -0.1031
    1W        W40501   9.886  29.274   0.394  0.3084  0.2063  0.2412
    1W        W40502   8.965  14.852   0.759 -0.1378 -0.0468 -0.1054
    1W        W40503  13.534  21.757   8.494  0.0480 -0.1322  0.1354
    1W        W40504  13.335   2.089   4.148 -0.2313  0.2133  0.0882
    1W        W40505  20.261   3.347   2.949 -0.0899 -0.0075 -0.0504
    1W        W40506  23.277   4.943   7.613  0.1649 -0.0044  0.2377
    1W        W40507  18.606   7.269   2.437  0.4626  0.0003 -0.1541
    1W        W40508  19.801   4.552   2.162 -0.0974  0.1310  0.1302
    1W        W40509  21.698   2.989   7.145  0.2587  0.0599 -0.1055
    1W        W40510  13.759  29.104   0.522  0.2014 -0.0381 -0.3875
    1W        W40511   1.679  10.311   7.638 -0.3956  0.2869  0.0668
    1W        W40512   1.328   9.887   1.483  0.2688 -0.1449 -0.0498
    1W        W40513  20.644  17.347   8.801  0.0247  0.1640 -0.2562
    1W        W40514  21.810  13.035   8.369 -0.0129  0.2144  0.2478
    1W        W40515   5.777  19.388   2.195  0.0257 -0.0221  0.0548
    1W        W40516  19.319  15.525   6.773 -0.0271  0.0222 -0.2004
    1W        W40517  23.566   8.689   0.113 -0.2517 -0.0586 -0.0066
    1W        W40518  22.140  17.325   6.382  0.1878 -0.0580  0.0592
    1W        W40519  20.047  16.764   9.316  0.1817 -0.0142 -0.0207
    1W        W40520  12.248  11.686   1.014 -0.0566 -0.2037  0.4978
    1W        W40521   2.932  10.650   0.803  0.0761 -0.1555 -0.1509
    1W        W40522   5.170  10.654   2.268  0.0061 -0.1038  0.0838
    1W        W40523  21.507  24.333   7.215  0.0304 -0.0533  0.3626
    1W        W40524  28.551  29.010   2.352  0.2309  0.2825 -0.0123
    1W        W40525  28.874  22.771   7.158  0.0102 -0.1022  0.0675
    1W        W40526   0.689  25.075   2.516 -0.2179  0.4713  0.0615
    1W        W40527  27.172  18.840   1.893  0.0073 -0.1292  0.0599
    1W        W40528  15.633  15.874   1.684  0.3418  0.0573 -0.0906
    1W        W40529   7.491  19.681   7.003 -0.0734 -0.2784 -0.2338
    1W        W40530  27.852   4.064   7.106  0.0256  0.0673  0.1618
    1W        W40531  24.154  27.597   9.245 -0.2130  0.0523 -0.1412
    1W        W40532   3.227  18.143   7.787  0.0644 -0.2018 -0.2641
    1W        W40533  14.428  29.044   7.965  0.2407  0.2312 -0.1419
    1W        W40534  17.492   5.024   7.792  0.1999 -0.1547  0.1775
    1W        W40535   7.482  15.404   1.726  0.0893 -0.0278 -0.2281
    1W        W40536   0.947  11.888   6.831 -0.0888  0.0809 -0.2622
    1W        W40537  14.311  21.130   8.270  0.4584 -0.3232 -0.2229
    1W        W40538  22.146  21.238   7.102  0.1263 -0.2942  0.2429
    1W        W40539  24.488  29.153   8.421 -0.1439  0.0566  0.0908
    1W        W40540  14.622   3.041   8.268  0.0354 -0.1933 -0.0268
    1W        W40541  11.000  23.485   7.916  0.1714 -0.0211  0.0412
    1W        W40542  22.983   7.965   0.419 -0.1045  0.0426  0.0622
    1W        W40543  23.347   4.078   1.295  0.0633 -0.2170  0.0529
    1W        W40544  28.292  14.089   6.602 -0.0260  0.3188 -0.0631
    1W        W40545  21.004  10.279   8.336 -0.1315  0.2426  0.2248
    1W        W40546  25.827  26.620   9.055  0.2743  0.1124  0.0266
    1W        W40547  20.515  27.739   6.886 -0.0890  0.0599 -0.0411
    1W        W40548  18.499   4.065   0.382 -0.0504  0.0106 -0.2310
    1W        W40549  20.125   3.128   1.487 -0.0943  0.0739 -0.0453
    1W        W40550  15.591   1.237   1.718  0.1007  0.0181 -0.1994
    1W        W40551   7.505  25.194   1.272  0.0726  0.0035  0.2326
    1W        W40552   3.294  25.804   7.531 -0.0306 -0.1577 -0.1255
    1W        W40553  24.496  26.947   9.086  0.0188  0.0419 -0.0666
    1W        W40554   1.655  11.833   7.163 -0.0745  0.4118 -0.1625
    1W        W40555   5.669  16.701   6.903  0.0648  0.0401  0.0636
    1W        W40556  27.533  12.155   6.839  0.3145 -0.3495 -0.1814
    1W        W40557  23.786  11.969   8.692  0.4041  0.2833  0.1645
    1W        W40558   3.948   7.634   1.833 -0.2092 -0.0495  0.4698
    1W        W40559   0.342  29.574   0.758 -0.0859 -0.0444 -0.0555
    1W        W40560  16.888   1.831   9.172  0.1565 -0.1584  0.1473
    1W        W40561   0.284  23.010   9.165 -0.0132 -0.0290  0.2930
    1W        W40562   6.523  25.280   7.180 -0.1583  0.0316  0.1453
    1W        W40563   0.696  16.562   0.735 -0.1133  0.1508  0.1271
    1W        W40564  14.407   6.838   1.524 -0.3091 -0.2816 -0.2214
    1W        W40565  25.338  12.458   0.062  0.2981  0.0129 -0.1751
    1W        W40566  16.817  12.026   9.271 -0.1199 -0.2366  0.0268
    1W        W40567  12.522   4.506   3.051 -0.2089 -0.4474  0.2790
    1W        W40568  26.825  29.277   2.257  0.1257  0.1628 -0.3307
    1W        W40569  12.770   4.565   2.054  0.2050 -0.3314 -0.0494
    1W        W40570  27.162  22.089   8.359  0.1383 -0.1363  0.1074
    1W        W40571  18.555   3.225   6.611 -0.2337 -0.1772 -0.0919
    1W        W40572  16.292  22.379   1.892 -0.1523  0.3088  0.2783
    1W        W40573  26.237  22.244   8.587  0.2452  0.1304 -0.1647
    1W        W40574   2.710  20.711   8.777 -0.1103  0.1164  0.0146
    1W        W40575   5.029   9.576   6.701  0.0692 -0.4285  0.0164
    1W        W40576  12.022   5.681   1.442 -0.0890 -0.2123 -0.3975
    1W        W40577   3.346   0.642   1.129  0.2525 -0.1432  0.0139
    1W        W40578   7.985  18.943   1.160  0.2273  0.1011  0.1203
    1W        W40579  18.486   8.318   1.869 -0.1858  0.3016 -0.0887
    1W        W40580   8.848  13.058   2.792 -0.4435 -0.1744 -0.0713
    1W        W40581  28.630  25.325   8.510  0.0710 -0.0246 -0.1230
    1W        W40582  21.392  14.774   6.731 -0.2362  0.1217  0.0326
    1W        W40583   0.704  24.301   6.592 -0.0312  0.3426 -0.1426
    1W        W40584  19.713  14.403   8.202 -0.1961  0.2149  0.1169
    1W        W40585  12.944  21.794   8.532 -0.1653 -0.1603 -0.1405
    1W        W40586  22.719  10.247   0.569  0.0215 -0.1520 -0.1230
    1W        W40587  18.158   1.741   9.020  0.1631  0.2274  0.0387
    1W        W40588  10.863  21.665   1.788 -0.2637 -0.2042  0.2533
    1W        W40589   1.485   9.116   6.980  0.1236  0.1651 -0.1220
    1W        W40590  26.227  15.732   1.023 -0.1443  0.2930 -0.0405
    1W        W40591  27.966   3.040   1.739 -0.0909  0.1772 -0.0794
    1W        W40592  28.046  15.480   7.704  0.1807  0.1147  0.0011
    1W        W40593  12.559  26.929   0.360 -0.2014 -0.1042 -0.2915
    1W        W40594  21.395   3.344   9.187  0.1102 -0.3250  0.3290
    1W        W40595   8.187   6.257   8.097  0.0723 -0.1692 -0.0815
    1W        W40596   1.188   0.440   0.316 -0.3856  0.3068  0.0067
    1W        W40597  24.348   3.156   2.210  0.1747  0.0981  0.0332
    1W        W40598   3.274  20.950   0.168  0.2982  0.0398 -0.1001
    1W        W40599   2.510   7.104   7.480  0.1367  0.0147 -0.1494
    1W        W40600  26.411  28.342   7.153  0.1835  0.2527  0.0256
    1W        W40601  22.710  19.173   2.469  0.1490 -0.3348 -0.0637
    1W        W40602  17.160  10.507   1.980 -0.0748 -0.0023 -0.2330
    1W        W40603   8.343  27.090   7.910 -0.0761 -0.2071  0.1386
    1W        W40604  25.232   7.637   2.754  0.0973 -0.1766  0.0287
    1W        W40605  23.519  20.204   9.129 -0.1105  0.2675 -0.0557
    1W        W40606   6.030  20.798   5.665  0.0432  0.2278  0.1382
    1W        W40607  22.259  19.735   7.412  0.3385 -0.0878  0.4556
    1W        W40608   3.740  19.969   5.874 -0.2598 -0.1051  0.0965
    1W        W40609   8.329  25.829   2.250 -0.2650  0.3080 -0.4005
    1W        W40610   2.588  28.381   2.405 -0.0387 -0.1272 -0.1695
    1W        W40611  25.432   8.576   0.570  0.1068  0.2266 -0.1971
    1W        W40612   2.055  22.174   7.165  0.3901 -0.3506 -0.3419
    1W        W40613   2.563  23.207   9.362 -0.1862  0.0478 -0.0642
    1W        W40614  24.319  12.318   2.563 -0.2905 -0.2190  0.0891
    1W        W40615  21.805  17.583   8.038 -0.1003 -0.0616 -0.0686
    1W        W40616  26.918   6.091   7.317  0.0332  0.0113  0.2685
    1W        W40617  29.078  16.443   1.891 -0.1884  0.1345 -0.2457
    1W        W40618  11.823  12.023   7.936  0.0841 -0.0971 -0.0454
    1W        W40619   4.106  21.314   0.114 -0.0119 -0.0369  0.0973
    1W        W40620   1.480  29.053   1.922 -0.0634 -0.2100  0.1262
    1W        W40621   7.201  19.483   1.326  0.3966  0.1759  0.0369
    1W        W40622   2.963  20.277   7.926 -0.0041  0.1500 -0.3359
    1W        W40623  19.531   2.922   8.456 -0.1918  0.1582 -0.3206
    1W        W40624  11.134   4.108   2.840  0.0157  0.2731  0.2744
    1W        W40625   6.402  21.396   7.300  0.2108 -0.2111 -0.0547
    1W        W40626  20.302  26.370   7.861  0.0714  0.1646  0.0189
    1W        W40627  26.306   4.990   1.870  0.1572  0.0124 -0.2720
    1W        W40628  15.763  23.408   2.272  0.0427 -0.0702 -0.0682
    1W        W40629  19.932  24.221   1.991 -0.1112 -0.3767 -0.0170
    1W        W40630  16.705  23.550   8.678  0.0423 -0.0604 -0.1846
    1W        W40631   6.129  25.898   1.675 -0.3159  0.0568 -0.2314
    1W        W40632  26.373  27.114   7.896 -0.2094 -0.2440  0.0128
    1W        W40633  14.295  11.179   8.688  0.3695  0.3351 -0.0215
    1W        W40634  15.354  28.956   6.751 -0.1990 -0.1583  0.0260
    1W        W40635   6.324  17.806   0.585  0.1634  0.0733  0.0436
    1W        W40636  28.143  18.895   1.510 -0.3184 -0.1391 -0.2495
    1W        W40637  20.291  20.753   2.309 -0.2101  0.1198  0.0588
    1W        W40638   2.934  19.689   9.008  0.0905  0.1070 -0.1590
    1W        W40639   5.175  24.914   7.168 -0.1506 -0.3243 -0.0101
    1W        W40640  25.849   1.347   1.392 -0.0433  0.1309 -0.0287
    1W        W40641  12.465  14.422   6.904 -0.3436 -0.0144 -0.0344
    1W        W40642  18.926  27.771   0.377  0.0345  0.2727  0.0873
    1W        W40643  28.412  11.657   6.461 -0.0105  0.1903 -0.0912
    1W        W40644   0.054  17.472   1.115 -0.1812 -0.0111 -0.1524
    1W        W40645   1.717  22.675   5.487  0.2072  0.0862 -0.4161
    1W        W40646   1.434  23.818   6.392 -0.0228  0.0343  0.0029
    1W        W40647  11.621  10.692   1.572 -0.1220  0.3436  0.2401
    1W        W40648   8.693  21.632   0.890  0.2293  0.0643 -0.3686
    1W        W40649  14.327   6.286   1.439  0.1667 -0.2253  0.0581
    1W        W40650  28.995   0.978   3.231  0.3102 -0.1688 -0.1295
    1W        W40651  10.066  29.139   3.018  0.2943 -0.1773  0.1266
    1W        W40652  29.650  29.325   2.536 -0.2438  0.0270 -0.3243
    1W        W40653   4.361  17.255   1.605  0.0296 -0.1136  0.0062
    1W        W40654  10.450  19.516   6.802  0.1603  0.2070 -0.2583
    1W        W40655  22.905  25.804   8.759 -0.1836  0.0273 -0.0386
    1W        W40656  18.099   4.372   0.439 -0.0290  0.3051 -0.1503
    1W        W40657   4.234  29.375   3.292 -0.1164 -0.0446  0.3400
    1W        W40658  20.227  18.811   8.437  0.0733  0.1088  0.3414
    1W        W40659  22.998  28.953   7.780  0.0226 -0.0763 -0.2822
    1W        W40660   3.521   1.887   0.244 -0.1510  0.4419 -0.0825
    1W        W40661  21.636   0.852   0.414 -0.2301  0.1969 -0.0487
    1W        W40662   4.908  17.635   7.040  0.1724  0.0310  0.1629
    1W        W40663  21.109  26.022   0.926  0.1618  0.1551  0.0416
    1W        W40664   5.792  24.383   7.760  0.0209 -0.1115  0.2459
    1W        W40665  12.191  25.632   9.378 -0.2535 -0.1039  0.3064
    1W        W40666  29.258  15.133   9.324  0.1132 -0.0394 -0.0236
    1W        W40667  15.502  19.855   8.970  0.1271  0.0340  0.1335
    1W        W40668  19.607  28.273   2.715  0.2955  0.1118 -0.2443
    1W        W40669  20.712   4.467   1.885 -0.2316  0.1465  0.2919
    1W        W40670   5.662  17.662   2.172  0.0193  0.0486 -0.2525
    1W        W40671  23.502  29.217   1.744  0.3298 -0.0537 -0.0387
    1W        W40672   6.182   7.382   7.685  0.0453  0.4194  0.2904
    1W        W40673  28.310  13.795   8.647  0.0203 -0.0533  0.0313
    1W        W40674  27.023   3.199   1.629  0.1533  0.0361 -0.1192
    1W        W40675   6.838  26.333   1.404  0.0183 -0.0782  0.1989
    1W        W40676  16.613  27.411   0.258  0.1559  0.2652  0.0512
    1W        W40677  15.955  11.005   1.587  0.1142 -0.2184  0.0190
    1W        W40678   7.483  10.711   1.682 -0.1494 -0.2517 -0.1924
    1W        W40679  16.928  27.075   9.426  0.3284 -0.0152 -0.0417
    1W        W40680  20.740  15.098   7.690 -0.1596  0.1915  0.0195
    1W        W40681  25.840   6.365   2.092 -0.0663 -0.0936  0.0325
    1W        W40682   6.551   7.064   0.730  0.1407 -0.0835 -0.1913
    1W        W40683   0.429  24.038   6.001 -0.1592 -0.2614  0.0268
    1W        W40684  21.753   6.710   2.395  0.0407  0.1457 -0.2772
    1W        W40685  21.595   1.510   2.514 -0.0012 -0.0571  0.1915
    1W        W40686   8.245  22.881   8.256  0.0128 -0.1943 -0.0161
    1W        W40687  23.776  16.025   1.868  0.0946 -0.1307 -0.0181
    1W        W40688  12.890  23.619   7.747 -0.2021 -0.3521  0.2408
    1W        W40689   5.055   9.716   2.492  0.0840  0.0650 -0.0222
    1W        W40690  19.634  13.518   9.409 -0.0495 -0.2865  0.0221
    1W        W40691  14.866  29.671   8.701 -0.0507 -0.2369 -0.1705
    1W        W40692   3.221  29.541   0.150  0.0342 -0.1219  0.0210
    1W        W40693  12.871   0.947   2.914  0.0979 -0.0828  0.1864
    1W        W40694   3.221  13.615   0.678 -0.0194  0.2186 -0.3127
    1W        W40695  24.949   9.615   8.541 -0.4848 -0.0231  0.0022
    1W        W40696   9.869  17.850   7.611  0.2894  0.0765 -0.0101
    1W        W40697  21.078   1.581   1.315  0.4759 -0.0224  0.4807
    1W        W40698  19.929   4.280   8.936  0.1255  0.1473  0.3163
    1W        W40699  26.386  21.755   0.950  0.0497  0.0543  0.0143
    1W        W40700  27.638  15.764   6.313 -0.0642 -0.0140 -0.1324
    1W        W40701  23.882  16.538   7.113  0.1404 -0.0683 -0.1358
    1W        W40702   4.723  20.219   1.732  0.3274  0.0233  0.2268
    1W        W40703  24.656  19.825   7.679 -0.1490  0.0673  0.1352
    1W        W40704   2.651   8.951   7.703  0.0241 -0.1638  0.0389
    1W        W40705   0.497  22.722   7.260  0.1884 -0.3445 -0.3153
    1W        W40706   9.949   7.968   8.148 -0.0054 -0.2287  0.2608
    1W        W40707   7.362  15.124   0.975 -0.1430  0.2671 -0.3390
    1W        W40708   2.569   6.286   3.422  0.0195  0.0288  0.0629
    1W        W40709   7.443   6.957   3.146  0.4157  0.2482  0.1563
    1W        W40710   6.693  25.882   7.146 -0.2363 -0.0168 -0.0610
    1W        W40711  24.662  13.125   9.385  0.0384 -0.1137 -0.0919
    1W        W40712  11.364  25.194   7.048  0.2098 -0.0143 -0.0771
    1W        W40713  28.435  17.163   1.153 -0.0505  0.1116 -0.1352
    1W        W40714  26.439  20.658   6.587  0.0396  0.3060 -0.0340
    1W        W40715  14.845   9.544   9.002 -0.1397  0.1701 -0.1945
    1W        W40716  24.176  14.809   8.085 -0.3101  0.4459  0.0695
    1W        W40717   2.370   9.791   2.023 -0.2300  0.0109 -0.3622
    1W        W40718  10.675  18.336   2.341 -0.0037 -0.1459  0.2206
    1W        W40719   8.990  15.774   1.043 -0.3463 -0.0433 -0.1246
    1W        W40720  24.227   2.404   8.346 -0.0711  0.5085  0.1111
    1W        W40721  14.738   5.470   1.389 -0.2136  0.0265 -0.0212
    1W        W40722  27.837  27.212   8.304  0.4470  0.0195 -0.1250
    1W        W40723  14.990   1.504   3.103 -0.3283 -0.0026  0.1865
    1W        W40724  10.323   7.116   8.254  0.0886 -0.1286  0.1462
    1W        W40725   4.481  29.597   2.380  0.1318 -0.2696  0.0553
    1W        W40726   0.373  22.357   6.749  0.1497 -0.0381 -0.1463
    1W        W40727  29.131  13.033   1.270 -0.1680 -0.2104  0.0937
    1W        W40728  15.681  18.870   7.099 -0.0901  0.0143  0.0752
    1W        W40729  14.269   4.923   7.405  0.0733  0.1645  0.3243
    1W        W40730   0.630   7.448   6.249  0.0930 -0.1065 -0.2227
    1W        W40731  16.104  12.148   0.591 -0.3244 -0.2903  0.0477
    1W        W40732   1.157  26.093   1.974  0.2299 -0.0206 -0.0401
    1W        W40733  25.548   1.329   3.539 -0.1739  0.1367 -0.0941
    1W        W40734  14.092   9.332   7.270  0.1045 -0.0159  0.2753
    1W        W40735  23.254  23.020   1.219 -0.2783 -0.0811 -0.1437
    1W        W40736  28.548  16.162   0.218  0.2634 -0.0564  0.1765
    1W        W40737   3.959  25.808   6.786 -0.0332 -0.4103  0.0799
    1W        W40738  28.109  18.000   1.063 -0.0150 -0.2237 -0.0635
    1W        W40739  26.385  12.468   8.787  0.2046 -0.0138  0.0634
    1W        W40740  29.460  10.614   0.499 -0.2639 -0.0253  0.0828
    1W        W40741  20.319  18.314   8.500 -0.0917 -0.1088  0.0554
    1W        W40742  27.609  16.436   9.088  0.0936 -0.1180 -0.1070
    1W        W40743  11.844  14.441   7.415  0.0903  0.0998 -0.1126
    1W        W40744  18.780  29.764   0.297  0.0767  0.3581 -0.0635
    1W        W40745  15.260  28.827   2.310  0.2802  0.0762  0.0812
    1W        W40746  22.284   4.431   7.404  0.2360 -0.2394 -0.2589
    1W        W40747  20.250  17.360   8.480  0.2897 -0.0260 -0.0219
    1W        W40748  12.380   5.393   3.129 -0.1799  0.2615 -0.0034
    1W        W40749   6.371  19.206   7.605  0.0929 -0.1882 -0.0133
    1W        W40750  28.609   5.918   1.503  0.1878 -0.0527 -0.0008
    1W        W40751  18.397  27.993   0.453 -0.1431  0.1934  0.2765
    1W        W40752   4.937  10.700   1.195  0.1000  0.0934 -0.1748
    1W        W40753   5.663  24.509   6.351  0.1748 -0.1190 -0.3194
    1W        W40754  23.751  29.383   7.869  0.2024  0.2088 -0.3858
    1W        W40755  11.273  18.957   0.451  0.1831 -0.0190 -0.0096
    1W        W40756   1.464   3.770   7.868  0.0734 -0.0380 -0.0055
    1W        W40757  14.057  29.795   7.327 -0.4582  0.2549  0.2450
    1W        W40758  23.265  21.145   1.851 -0.0077  0.0766 -0.2051
    1W        W40759  14.110  27.086   2.433  0.3599  0.0545 -0.0387
    1W        W40760  17.848   8.556   6.857 -0.1347  0.0648  0.1257
    1W        W40761  19.983  16.342   0.223  0.0874 -0.3021 -0.2626
    1W        W40762   9.168  24.036   6.288  0.4056  0.1030  0.2304
    1W        W40763  13.499   8.556   2.674  0.1856 -0.0001  0.0631
    1W        W40764   4.626  25.420   8.108 -0.2565  0.3329 -0.0292
    1W        W40765   0.118  15.156   2.250  0.1466  0.0399 -0.2504
    1W        W40766  22.292   9.552   0.142  0.2017  0.3389  0.0441
    1W        W40767  17.500   5.892   5.974  0.4911  0.0000 -0.2029
    1W        W40768   8.600  26.397   6.254  0.1723 -0.1054  0.0366
    1W        W40769  13.928  29.282   1.840  0.2531 -0.0108 -0.2555
    1W        W40770   1.692   7.139   6.824 -0.0747  0.2801 -0.0628
    1W        W40771  18.053  19.576   8.335 -0.0720  0.2841 -0.1333
    1W        W40772  20.088   7.494   7.404 -0.2222 -0.2827  0.1767
    1W        W40773  17.140   4.994   8.398 -0.1816  0.0540 -0.1976
    1W        W40774  26.894  13.468   2.340 -0.0001 -0.0851 -0.0208
    1W        W40775  11.376   1.647   3.789  0.0694 -0.2251  0.0192
    1W        W40776  24.091   8.923   1.704  0.2177 -0.2213 -0.1624
    1W        W40777  28.869  21.824   7.488  0.0671  0.0273  0.4226
    1W        W40778  22.242  23.649   0.207 -0.0801 -0.2170 -0.2362
    1W        W40779  26.489  26.096   9.337  0.0082  0.0252  0.2431
    1W        W40780  24.599   2.156   0.602  0.0954  0.0315  0.2507
    1W        W40781   1.971   4.286   6.248  0.2720 -0.3342  0.1035
    1W        W40782  24.839  24.178   0.718  0.5287  0.0651  0.1329
    1W        W40783  11.756  11.224   2.333  0.0737 -0.0771 -0.0368
    1W        W40784  22.998   5.076   8.001 -0.0053 -0.1374 -0.1767
    1W        W40785   4.673  28.471   0.425 -0.1734 -0.1557  0.0763
    1W        W40786  11.305  21.347   6.441 -0.0901 -0.4775 -0.0956
    1W        W40787  12.236   4.543   2.683  0.2877 -0.0548 -0.0507
    1W        W40788   5.098   4.214   1.719 -0.2618  0.0982  0.2463
    1W        W40789   9.003  14.075   8.010  0.0086 -0.0054  0.2641
    1W        W40790  23.469   1.751   9.362 -0.1127  0.1158  0.1185
    1W        W40791  23.568  13.734   8.109  0.1860 -0.1896  0.1995
    1W        W40792  16.341   4.901   1.953  0.0112 -0.1193  0.2946
    1W        W40793   9.174  27.689   0.013 -0.0452 -0.1258  0.0157
    1W        W40794  10.004  29.236   1.449  0.2351 -0.0013 -0.1227
    1W        W40795   3.734  14.005   9.110 -0.3365 -0.1992  0.1983
    1W        W40796   5.695  17.874   8.408  0.2733  0.1724  0.1782
    1W        W40797   0.519  18.031   0.506 -0.2290  0.0583  0.0969
    1W        W40798  20.814  24.448   2.705 -0.2206  0.1112  0.1047
    1W        W40799   5.077  15.800   7.537  0.2098  0.0466  0.0860
    1W        W40800  19.269  15.950   1.415  0.0156 -0.1924  0.2256
    1W        W40801  10.824  10.150   6.770  0.2199  0.3898 -0.0644
    1W        W40802  15.699  12.117   1.015 -0.0919  0.0094 -0.0395
    1W        W40803   0.434   9.696   1.991 -0.0561 -0.0835 -0.2129
    1W        W40804  14.387  26.726   8.154 -0.1556 -0.1155  0.2264
    1W        W40805  22.457  10.630   6.699  0.0283  0.0961 -0.1866
    1W        W40806  19.689   4.325   0.426  0.0179  0.0614  0.2162
    1W        W40807  19.928   6.815   1.822  0.2133  0.0051  0.0153
    1W        W40808  29.369  10.431   1.883  0.1301  0.0785 -0.0524
    1W        W40809   1.946   9.647   7.102 -0.0274  0.2543  0.0332
    1W        W40810  12.766  22.097   8.067 -0.1091  0.2128 -0.3502
    1W        W40811   3.323   8.671   7.231 -0.1084 -0.1185 -0.0598
    1W        W40812   1.900  28.603   1.665 -0.0479  0.0926  0.0933
    1W        W40813  20.991  19.332   7.864 -0.1109 -0.0692 -0.0079
    1W        W40814  17.394  22.131   0.714  0.0859  0.2335 -0.0546
    1W        W40815  20.726  13.716   1.768 -0.0946 -0.1233  0.2036
    1W        W40816  26.266  25.299   9.098  0.0349  0.0484 -0.0514
    1W        W40817   3.754   1.084   6.904 -0.2133  0.2630 -0.0092
    1W        W40818  27.684  18.323   8.872  0.0259 -0.0460 -0.2535
    1W        W40819   0.283  10.906   6.323  0.1198 -0.0948 -0.0289
    1W        W40820  24.615  26.898   0.142  0.4296  0.4166  0.2875
    1W        W40821  13.524  12.610   7.925 -0.0733  0.0374  0.1516
    1W        W40822  16.952  24.793   0.536 -0.0218  0.1922 -0.0801
    1W        W40823  25.685  26.153   8.179  0.3446  0.3571  0.4430
    1W        W40824   9.277   8.652   8.005  0.1329 -0.1450  0.0365
    1W        W40825   3.091   5.921   1.785 -0.0761 -0.3328 -0.4207
    1W        W40826   8.580   9.192   0.730  0.2988 -0.0964 -0.0082
    1W        W40827   3.921  11.401   1.185  0.1054  0.2350  0.0255
    1W        W40828   8.227   6.396   2.418 -0.0901 -0.0933 -0.1194
    1W        W40829   7.557  27.450   0.294  0.0014  0.3270 -0.0109
    1W        W40830   7.648   0.515   1.854  0.1377  0.0014 -0.0815
    1W        W40831   7.823   6.442   9.360 -0.0605  0.1070  0.1089
    1W        W40832  16.547   7.621   7.882 -0.1831 -0.0303  0.2456
    1W        W40833   9.517   0.419   1.772 -0.3309  0.0703 -0.3879
    1W        W40834   8.366  14.318   7.769 -0.3296 -0.1480  0.0104
    1W        W40835  14.275  22.133   5.840  0.1773  0.2029 -0.3054
    1W        W40836  28.564   4.794   7.204  0.0945  0.1035  0.3709
    1W        W40837  17.535  25.234   0.623  0.0807 -0.0685  0.2605
    1W        W40838  11.250  10.490   0.716 -0.1601  0.0326  0.3029
    1W        W40839  24.163   0.495   8.681 -0.1852  0.1026 -0.0289
    1W        W40840  15.887   9.697   9.142 -0.1064 -0.0856 -0.0281
    1W        W40841  28.384  11.258   1.938 -0.0423  0.0413  0.0521
    1W        W40842  11.126  26.558   6.795 -0.1288 -0.1457 -0.1383
    1W        W40843   9.394  21.818   0.711  0.5423  0.2295 -0.0122
    1W        W40844  26.166  28.739   8.290 -0.1380  0.0356  0.0677
    1W        W40845   7.288  29.790   6.707  0.3222 -0.0907 -0.0327
    1W        W40846   8.088  26.638   7.651  0.0775  0.1076  0.1570
    1W        W40847   0.726   6.436   1.142 -0.0844 -0.3375  0.0826
    1W        W40848  24.447  27.607   7.787 -0.2766  0.0974 -0.2218
    1W        W40849   9.135   2.054   8.095  0.1233  0.2820  0.1660
    1W        W40850   0.645  20.187   7.768  0.1699 -0.1047 -0.2924
    1W        W40851   6.040  18.618   7.975  0.3284  0.0398 -0.0887
    1W        W40852  24.760  16.472   7.889 -0.1215  0.1341 -0.0176
    1W        W40853  12.375  28.065   7.671 -0.0935  0.0166  0.0128
    1W        W40854   3.381  22.033   7.628 -0.0204 -0.0913  0.0256
    1W        W40855  26.698   4.241   2.163 -0.0238  0.2374 -0.2946
    1W        W40856   7.553  19.482   9.264 -0.4927  0.1077 -0.0996
    1W        W40857  12.903   9.876   8.993  0.2533  0.0234 -0.0907
    1W        W40858   3.808  15.042   9.344 -0.3377  0.1779  0.2457
    1W        W40859  22.358  26.149   0.086 -0.0403  0.0247  0.2956
    1W        W40860   8.064  18.727   7.080  0.0188 -0.0475  0.1904
    1W        W40861  10.111   2.032   1.442  0.1073  0.2811 -0.0091
    1W        W40862   8.655   3.309   8.692 -0.2855  0.0633  0.1169
    1W        W40863  27.340   6.218   0.657  0.1653 -0.1310  0.1923
    1W        W40864   2.606  12.671   1.982 -0.2245 -0.2438  0.1833
    1W        W40865  22.409  25.873   8.594  0.0876 -0.0978 -0.0675
    1W        W40866  26.689  29.606   7.355  0.0643 -0.0430  0.1765
    1W        W40867   1.873  27.357   8.467 -0.0001  0.1623  0.2537
    1W        W40868  19.291   7.121   7.395  0.2064  0.1393  0.1701
    1W        W40869  13.180   3.066   8.349 -0.2703 -0.0622  0.1986
    1W        W40870   3.375   3.449   2.904 -0.1004 -0.2265 -0.1803
    1W        W40871  14.398   4.698   1.144 -0.0105  0.0879  0.1748
    1W        W40872   6.310   3.417   2.970 -0.0339 -0.3304  0.1330
    1W        W40873   8.902   9.855   2.046 -0.2366 -0.2903 -0.1141
    1W        W40874  10.100  21.809   6.070  0.0178 -0.3190 -0.0360
    1W        W40875  25.186  17.186   2.087  0.2681  0.2037  0.3381
    1W        W40876  26.492  18.678   8.061 -0.0706  0.2090 -0.0463
    1W        W40877   5.163   2.951   2.510  0.4178  0.1104  0.0749
    1W        W40878  18.835   3.872   9.157  0.2747 -0.0354 -0.2354
    1W        W40879  24.098  10.017   6.859  0.3254 -0.0938  0.0711
    1W        W40880   2.757   0.876   2.940 -0.3034 -0.0918  0.2478
    1W        W40881  21.508  10.075   9.317 -0.3722 -0.1999 -0.1495
    1W        W40882   1.068  17.999   6.984  0.0967 -0.1515 -0.3539
    1W        W40883  18.158  23.149   8.896  0.1837  0.0697  0.1026
    1W        W40884   9.009   6.520   7.917 -0.0760  0.0024  0.0622
    1W        W40885   4.180  18.763   1.390  0.0089  0.0614 -0.2697
    1W        W40886  16.074  25.680   1.740  0.0239 -0.3061 -0.2030
    1W        W40887  24.762  12.025   1.907 -0.5910 -0.0262  0.0784
    1W        W40888   4.652  14.093   1.728 -0.1828 -0.2767  0.1529
    1W        W40889  18.428  19.138   2.190 -0.0447 -0.0069  0.1582
    1W        W40890  25.370  15.001   0.823 -0.1537 -0.4392  0.1487
    1W        W40891  13.550  19.798   1.899  0.1680 -0.2559  0.0452
    1W        W40892  28.694  12.384   0.231 -0.1052  0.0640 -0.1081
    1W        W40893  17.963  28.858   9.126  0.1602  0.0507  0.2302
    1W        W40894  24.460   5.239   6.809  0.1001 -0.0123  0.1549
    1W        W40895  16.714  12.500   8.699 -0.5319  0.1314  0.3526
    1W        W40896  12.163  12.641   0.658  0.2482  0.0873 -0.2251
    1W        W40897  15.042  29.562   7.748 -0.0088  0.1037  0.1135
    1W        W40898   8.136  23.220   1.768  0.0561 -0.0832  0.0634
    1W        W40899   5.665  15.882   9.319  0.0054 -0.0215  0.1144
    1W        W40900  29.356  28.738   7.238 -0.3152 -0.0399  0.0520
    1W        W40901   1.616  27.860   7.648  0.1381  0.0993 -0.2478
    1W        W40902  21.422   5.124   7.446  0.1696  0.0268 -0.2059
    1W        W40903   2.589  24.037   1.583 -0.0251  0.2068 -0.0561
    1W        W40904   8.008  12.103   2.260 -0.1423  0.0702 -0.2998
    1W        W40905   5.646   3.896   9.043  0.1078  0.1780  0.1658
    1W        W40906   4.467  10.779   1.714 -0.0656 -0.2936 -0.0483
    1W        W40907  13.753  26.728   1.922  0.1428  0.0387 -0.1181
    1W        W40908  11.568  10.516   9.253  0.2160 -0.0457 -0.0181
    1W        W40909   1.404   9.101   7.831  0.1888  0.0524 -0.2283
    1W        W40910   7.668   5.799   0.864  0.0106 -0.0363  0.0864
    1W        W40911  23.214   3.111   0.486 -0.1371 -0.0502 -0.0149
    1W        W40912  11.435  15.632   9.017 -0.3342 -0.1356 -0.1569
    1W        W40913  12.898   4.272   8.985 -0.0090  0.0261 -0.3703
    1W        W40914  23.056  26.046   1.377  0.3661  0.1193 -0.0033
    1W        W40915  22.032   5.145   6.845 -0.1132 -0.0274 -0.1626
    1W        W40916  20.522  13.505   1.261 -0.0120  0.0477  0.1493
    1W        W40917  27.794  15.215   0.150  0.0287 -0.1123 -0.0945
    1W        W40918  18.520  26.628   2.427  0.2406  0.0610 -0.1806
    1W        W40919   2.569  13.396   0.533  0.1627  0.2563  0.1851
    1W        W40920  23.557   2.712   1.575 -0.1068 -0.1606  0.2355
    1W        W40921  24.732  28.257   2.869  0.0654 -0.2646 -0.0101
    1W        W40922   9.674  21.596   1.226  0.1337 -0.1506 -0.3283
    1W        W40923  29.150  11.344   7.323 -0.0117 -0.0350 -0.1907
    1W        W40924  12.048  29.735   2.650 -0.0667 -0.4232 -0.0643
    1W        W40925   4.902  17.447   9.343 -0.1639 -0.0385 -0.0706
    1W        W40926  27.452   0.206   6.642 -0.3703 -0.0419 -0.1041
    1W        W40927  11.540   3.081   9.268  0.1754 -0.0335 -0.1338
    1W        W40928   7.944  26.811   8.094  0.1286 -0.0498 -0.1050
    1W        W40929  21.717  12.725   7.565  0.0096  0.1823  0.1009
    1W        W40930  25.571  17.665   8.058  0.3884 -0.1109  0.4069
    1W        W40931  24.154  26.120   7.354 -0.0558 -0.2141  0.3055
    1W        W40932   5.928   6.317   8.374 -0.2850  0.0543  0.0259
    1W        W40933  28.272  26.087   6.923 -0.2260 -0.1098  0.1291
    1W        W40934  22.715  10.843   0.454  0.0805 -0.2313  0.2248
    1W        W40935  10.101  12.234   8.883  0.3804 -0.4738  0.0663
    1W        W40936  13.050  22.271   8.595  0.3827 -0.0043 -0.2925
    1W        W40937   5.258  29.271   8.546  0.1520 -0.1914 -0.1945
    1W        W40938   3.726  10.979   7.329  0.4088  0.0380  0.2627
    1W        W40939  21.585  15.645   0.615  0.3387  0.1299 -0.0898
    1W        W40940  10.011  12.784   2.247 -0.1386  0.0156  0.0396
    1W        W40941  25.478   3.751   0.481 -0.0833  0.0306 -0.0905
    1W        W40942  29.104   3.951   6.923  0.3074  0.2491  0.1200
    1W        W40943  12.274   8.662   0.404 -0.0744 -0.1004  0.3494
    1W        W40944  14.096  20.276   7.207  0.1183  0.0248  0.0052
    1W        W40945  19.189  17.762   0.311  0.1869 -0.1895 -0.1194
    1W        W40946  14.291   4.509   8.524  0.1589  0.0089 -0.1314
    1W        W40947  28.148   6.683   8.427 -0.0480 -0.0012 -0.0671
    1W        W40948  22.536  12.375   1.197 -0.2178  0.0892  0.4436
    1W        W40949  14.804   2.389   0.253 -0.0584  0.0737 -0.1956
    1W        W40950  23.717   7.726   7.251 -0.3524  0.1235  0.0620
    1W        W40951  26.118   2.651   1.016  0.2403  0.0781  0.0502
    1W        W40952   0.340   4.345   9.286  0.0966  0.1900  0.3458
    1W        W40953   7.093   9.383   8.549  0.1161  0.1169  0.1533
    1W        W40954   5.612   5.993   8.133 -0.1437  0.1295  0.1517
    1W        W40955  15.633  17.223   9.155  0.2572 -0.2118 -0.1173
    1W        W40956  19.982   6.306   1.301  0.3564 -0.0854 -0.0144
    1W        W40957   0.140  29.317   1.204  0.2291 -0.0619  0.1083
    1W        W40958  28.025  11.385   1.005  0.1682  0.2569 -0.0264
    1W        W40959  19.561  11.235   7.304 -0.0030  0.2109 -0.0011
    1W        W40960  18.604   2.513   7.822  0.0457  0.2184 -0.5290
    1W        W40961  20.783  15.575   7.822 -0.1470 -0.1379  0.0761
    1W        W40962  24.041   7.598   2.275 -0.2200  0.1078 -0.1791
    1W        W40963  23.629  19.383   1.908 -0.3480 -0.0431  0.3162
    1W        W40964  24.414  10.303   6.506  0.2041  0.0014 -0.1049
    1W        W40965   7.959  25.172   1.059 -0.1825 -0.1501  0.0013
    1W        W40966  21.678  18.280   1.275  0.0897  0.1803 -0.1443
    1W        W40967  28.143   1.893   8.340 -0.1849  0.1333  0.3208
    1W        W40968  20.601   6.074   6.139  0.0620  0.0656 -0.3074
    1W        W40969   3.407   1.946   6.962 -0.2266 -0.3236  0.3123
    1W        W40970   4.384   5.772   0.392 -0.0087  0.2384  0.1352
    1W        W40971  13.328  13.009   9.361 -0.3561  0.1203 -0.0486
    1W        W40972  23.204  23.829   0.880  0.3167  0.1145 -0.3486
    1W        W40973  28.860   8.858   7.784  0.2601 -0.1348  0.1819
    1W        W40974  23.869  11.625   7.595  0.1795 -0.1030 -0.1200
    1W        W40975  22.427   5.561   2.244 -0.2664 -0.0980  0.1029
    1W        W40976  26.284  22.703   8.856  0.1858  0.0583 -0.4324
    1W        W40977  16.326   9.834   2.211  0.1859  0.2368  0.0437
    1W        W40978   9.976   5.007   9.283  0.1821  0.0102 -0.0327
    1W        W40979   1.689   5.087   2.156  0.1392 -0.0388  0.0741
    1W        W40980  29.646   3.679   1.739 -0.3607  0.1132 -0.1041
    1W        W40981   6.638   8.916   7.104 -0.2293 -0.2126  0.1259
    1W        W40982  18.983  15.559   1.866 -0.2521 -0.1382 -0.0432
    1W        W40983  11.342   4.613   2.639 -0.2121  0.0152 -0.1887
    1W        W40984  16.321  11.802   7.364  0.0783 -0.2049 -0.1462
    1W        W40985  17.323  25.439   0.210 -0.2324 -0.0319  0.2534
    1W        W40986  28.675   1.777   8.240 -0.1671 -0.0033 -0.2253
    1W        W40987   6.643  18.155   1.340 -0.0099  0.0542  0.1703
    1W        W40988  17.506   0.388   8.641 -0.1206 -0.0505 -0.0299
    1W        W40989  24.281  15.784   7.409 -0.2055  0.1749 -0.1589
    1W        W40990  12.000  15.587   2.014  0.0560 -0.1221 -0.0233
    1W        W40991  19.778   6.550   8.941  0.0701  0.2357 -0.1153
    1W        W40992   0.432  15.615   0.990 -0.1171 -0.2311  0.0870
    1W        W40993  21.578  21.296   3.088  0.0485  0.0222 -0.1478
    1W        W40994  10.682  14.197   7.561  0.1614  0.0767 -0.3856
    1W        W40995  27.824  17.245   7.122 -0.1192  0.0244  0.0699
    1W        W40996  19.640  13.875   0.287 -0.0092  0.0431 -0.1989
    1W        W40997   3.997  13.968   7.960  0.3138 -0.1123  0.0779
    1W        W40998   1.830  11.452   6.433 -0.2814 -0.1264 -0.1859
    1W        W40999  25.445  26.029   9.427 -0.0476  0.0740 -0.1698
    1W        W41000  26.311  17.501   7.107  0.1492  0.0500  0.1701
    1W        W41001  20.839  12.018   0.308 -0.2374  0.1548  0.2849
    1W        W41002   7.085  22.223   0.784 -0.0518 -0.4296 -0.0199
    1W        W41003  11.238   9.706   8.959 -0.1912  0.1016 -0.1659
    1W        W41004  22.803  11.698   0.781 -0.3385 -0.1353  0.0195
    1W        W41005   6.399  17.437   7.251  0.2400  0.0658  0.2964
    1W        W41006  23.301  25.573   2.506  0.0614  0.1135  0.0747
    1W        W41007  14.997   7.817   2.478  0.1271 -0.3423 -0.0287
    1W        W41008   9.834  18.396   9.026 -0.0772  0.2098 -0.2813
    1W        W41009  22.147  17.686   1.953  0.0508 -0.0810  0.1016
    1W        W41010  22.983   9.722   8.725 -0.1415  0.2344 -0.0166
    1W        W41011   0.392   5.062   1.805 -0.3127  0.1943  0.0009
    1W        W41012   3.078  11.490   1.347  0.0663  0.0632  0.0041
    1W        W41013   4.810  11.307   0.912  0.1572 -0.0168  0.0511
    1W        W41014   5.819  20.411   1.863 -0.0754  0.0702 -0.2423
    1W        W41015   5.411  23.340   6.900  0.3180 -0.1042 -0.4065
    1W        W41016   7.759   9.248   7.618 -0.1659 -0.3297 -0.0070
    1W        W41017  28.977   4.681   7.473  0.0477 -0.2890  0.2911
    1W        W41018  21.042  25.972   9.334 -0.0826  0.1182 -0.0416
    1W        W41019  20.674  23.573   2.159 -0.2687  0.0698 -0.2129
    1W        W41020   2.729  14.108   8.874 -0.0831  0.0410 -0.0622
    1W        W41021   5.270  23.768   6.127  0.1384  0.1526 -0.1672
    1W        W41022  13.764  29.587   2.309  0.0391  0.0212 -0.0373
    1W        W41023  27.479  25.570   1.368 -0.1429  0.1463  0.4120
    1W        W41024  10.358  27.370   3.088  0.2984  0.2279  0.3450
    1W        W41025   3.939   8.413   7.444  0.0685  0.3907 -0.0447
    1W        W41026   3.879  20.700   8.786 -0.4332  0.1997  0.0813
    1W        W41027   1.426   5.804   9.191  0.0882  0.0428  0.1471
    1W        W41028  24.446  22.301   3.251  0.0517 -0.1174  0.1207
    1W        W41029   8.397  11.733   1.566  0.1386  0.2235  0.0375
    1W        W41030  17.802  14.888   1.377 -0.0221  0.0651 -0.1370
    1W        W41031  19.552   6.178   7.734  0.0431  0.1426  0.2885
    1W        W41032  15.080   9.468   1.934  0.0960  0.0262 -0.1250
    1W        W41033  22.952  19.590   7.148 -0.1292  0.0421 -0.0688
    1W        W41034  15.194   6.419   2.087  0.0260 -0.0014  0.2592
    1W        W41035  18.156  11.009   8.747 -0.2908 -0.0793 -0.1438
    1W        W41036  21.285  26.893   8.454 -0.3467  0.1261  0.2336
    1W        W41037   0.783   0.700   6.145 -0.0590  0.3237 -0.2632
    1W        W41038  14.311  22.239   8.091 -0.3594  0.1242 -0.1672
    1W        W41039  14.891   0.723   7.623  0.1175  0.0923  0.2478
    1W        W41040  26.870  17.108   8.701 -0.1958 -0.0713  0.2477
    1W        W41041   6.265  20.498   1.635  0.2147  0.1751  0.2054
    1W        W41042   9.841   3.005   1.532  0.1078  0.2197 -0.0637
    1W        W41043  12.327   1.919   8.479 -0.2591  0.1588  0.1380
    1W        W41044  28.319  21.920   1.419 -0.2973  0.1371  0.1288
    1W        W41045  11.257  12.073   2.232  0.3219 -0.0677  0.1641
    1W        W41046  14.929   6.397   8.936 -0.0918  0.1764  0.2094
    1W        W41047   0.854  16.849   8.951 -0.0945  0.2155 -0.0710
    1W        W41048  10.646   6.223   8.712  0.4255 -0.2465 -0.2270
    1W        W41049  14.326  22.669   8.390  0.0398  0.0502 -0.1328
    1W        W41050  10.569   1.087   1.179 -0.0949 -0.3239  0.4010
    1W        W41051   8.713  27.085   2.435 -0.0257  0.0851 -0.2104
    1W        W41052  29.157   2.542   7.101  0.1001  0.1672  0.0761
    1W        W41053  24.188   7.507   6.765 -0.1904  0.2826 -0.2381
    1W        W41054  24.681  25.407   1.961  0.0420  0.1721 -0.0802
    1W        W41055   8.483  14.052   7.377 -0.3263 -0.0929  0.0365
    1W        W41056  16.829  20.640   8.425 -0.0148 -0.0095 -0.0126
    1W        W41057  25.412  10.895   0.727 -0.1089  0.3455 -0.0943
    1W        W41058  16.886   8.664   1.690 -0.1332  0.1326 -0.0550
    1W        W41059   7.266   4.720   0.686 -0.1605 -0.1821  0.0798
    1W        W41060   6.789  19.208   5.883 -0.1939  0.0171 -0.1184
    1W        W41061   3.280  25.087   6.938  0.0931  0.3275  0.2762
    1W        W41062  18.277   0.279   3.047 -0.1041 -0.4860 -0.1450
    1W        W41063  19.265  19.794   8.970 -0.2480 -0.0952  0.1642
    1W        W41064  26.630  19.543   7.941  0.2401  0.1070  0.1617
    1W        W41065  20.289   3.527   7.433  0.1238  0.0124  0.2451
    1W        W41066  29.577  19.198   8.575  0.3176 -0.4215  0.0249
    1W        W41067   6.608  25.648   8.484 -0.0119  0.1488 -0.2978
    1W        W41068  27.483  27.676   3.015 -0.3484 -0.0407 -0.0746
    1W        W41069   8.400   9.400   0.301  0.1247 -0.1778 -0.0838
    1W        W41070  25.999   8.708   1.276  0.0410  0.2947  0.1321
    1W        W41071  14.148  25.178   6.962 -0.0209  0.3368 -0.0447
    1W        W41072  25.399   4.491   6.543  0.2644  0.0550  0.0015
    1W        W41073  11.246  27.635   7.607  0.0087  0.3597  0.0099
    1W        W41074  28.492  12.371   5.988  0.1337 -0.0778  0.0769
    1W        W41075   9.036  23.508   7.680  0.3190  0.2137  0.1691
    1W        W41076   1.641   2.804   0.445 -0.0390 -0.2478  0.0602
    1W        W41077   7.978   7.533   0.990  0.0244  0.1094  0.1672
    1W        W41078  28.921  25.684   8.208 -0.1604 -0.0059  0.3290
    1W        W41079  10.765  13.322   7.361 -0.2087 -0.2217  0.1711
    1W        W41080  20.485  29.041   2.848 -0.2500  0.5159 -0.2019
    1W        W41081  26.772   4.323   0.224  0.1061 -0.0715 -0.1950
    1W        W41082   6.746  14.583   1.633  0.1120  0.1187  0.1801
    1W        W41083   8.542   5.350   1.081 -0.1273 -0.0103 -0.1440
    1W        W41084  18.138  29.272   9.362  0.1063  0.0535 -0.1258
    1W        W41085  11.216   9.938   0.877 -0.3482  0.0345  0.0024
    1W        W41086   9.342   6.549   8.738  0.1398 -0.1172 -0.0297
    1W        W41087   4.228   7.444   2.247  0.2040  0.0760  0.0911
    1W        W41088   3.427   8.200   8.981  0.4598  0.0241  0.0442
    1W        W41089   0.600  19.648   6.781  0.1218  0.0744 -0.2003
    1W        W41090  27.689  27.718   8.223  0.0406 -0.0466  0.1786
    1W        W41091   2.667   3.913   7.359 -0.0700 -0.2889  0.0596
    1W        W41092   0.993  16.329   6.012 -0.0737  0.3198  0.0397
    1W        W41093  10.866  13.081   0.307 -0.0909  0.0573  0.0927
    1W        W41094  24.432  10.816   5.904 -0.1023  0.3481 -0.0282
    1W        W41095  16.836  26.769   2.931  0.2959 -0.0528 -0.1763
    1W        W41096   3.228   4.589   8.091  0.2128 -0.0775 -0.2760
    1W        W41097   4.907  12.158   7.423 -0.1002  0.0575  0.1664
    1W        W41098   2.174   0.781   1.744  0.2762 -0.0387 -0.6050
    1W        W41099   8.936  22.079   0.554 -0.0585 -0.2422  0.0810
    1W        W41100  26.107   9.129   1.042  0.0879  0.2686  0.0828
    1W        W41101  13.764   6.438   2.719 -0.2089 -0.1460  0.2422
    1W        W41102  17.633  19.136   2.690 -0.4292 -0.3141 -0.0955
    1W        W41103  24.908  19.392   7.706 -0.0831  0.0809 -0.0121
    1W        W41104   2.329   5.153   0.260 -0.0205 -0.1437  0.1089
    1W        W41105   2.160  20.892   8.744  0.0179 -0.0028  0.2267
    1W        W41106   7.955  11.789   8.594 -0.2019 -0.4031 -0.0969
    1W        W41107   8.258   5.330   9.034  0.1603  0.0324  0.3365
    1W        W41108  26.021   1.512   2.729 -0.0810  0.1422  0.0859
    1W        W41109  17.256  22.040   7.800 -0.0703  0.1639  0.0995
    1W        W41110  14.517  28.636   2.803 -0.1902  0.0021 -0.1161
    1W        W41111   2.809  23.791   7.520  0.0205 -0.2595 -0.3122
    1W        W41112   2.896   5.158   1.915  0.0351 -0.0083 -0.0838
    1W        W41113  16.383  15.484   0.902  0.1575  0.2067 -0.0379
    1W        W41114   5.539  27.412   8.545  0.0164 -0.1895 -0.0256
    1W        W41115  20.522  11.347   0.655  0.1564 -0.1924 -0.1743
    1W        W41116  25.678  17.959   6.724 -0.0208  0.3185  0.0197
    1W        W41117  13.043  10.927   8.107 -0.6439 -0.0605  0.0900
    1W        W41118   6.744  28.006   8.225  0.3803 -0.0639  0.2307
    1W        W41119  29.368  13.848   9.128 -0.1461 -0.1919 -0.1148
    1W        W41120   1.482  10.332   1.596  0.0019  0.2787  0.1248
    1W        W41121   7.176   5.842   3.809 -0.3090 -0.1034  0.0782
    1W        W41122  24.772  24.029   7.785  0.3259 -0.1595 -0.3289
    1W        W41123  10.763  26.932   8.059  0.0309 -0.0966  0.0675
    1W        W41124  17.083  11.864   1.958  0.1194  0.1966 -0.1360
    1W        W41125  13.251  11.369   9.292 -0.1326  0.1066 -0.2169
    1W        W41126  18.712  15.644   6.872  0.0420 -0.0873  0.0939
    1W        W41127  27.470  19.937   9.321  0.1348  0.1988  0.1294
    1W        W41128   5.770  21.962   5.494  0.0421 -0.1137  0.2518
    1W        W41129  29.223  10.806   7.423 -0.2022 -0.0110 -0.1115
    1W        W41130  24.697  15.418   0.317  0.1202  0.2417  0.0477
    1W        W41131  22.766   0.190   9.334  0.0856 -0.1823  0.1506
    1W        W41132  25.513  18.293   0.032  0.0061 -0.1516  0.0934
    1W        W41133  21.944   3.980   0.632  0.1990 -0.1905 -0.0391
    1W        W41134   0.996   7.380   0.839 -0.1434 -0.0198 -0.0091
    1W        W41135  18.735  19.634   2.266  0.0217 -0.0878 -0.0554
    1W        W41136  10.900  23.705   0.723  0.2577  0.1317  0.1246
    1W        W41137  29.635   0.824   0.569  0.2354  0.0506  0.0042
    1W        W41138   6.548   1.820   7.354 -0.1972 -0.1922  0.0773
    1W        W41139  14.240  23.022   7.919  0.0457 -0.1901 -0.1275
    1W        W41140  23.143   2.987   1.510  0.1191  0.3993 -0.3934
    1W        W41141  10.443  12.048   7.155 -0.0802 -0.1382 -0.3320
    1W        W41142   8.030  26.393   0.100  0.0689  0.2981  0.3925
    1W        W41143   2.623  16.437   9.165 -0.3921  0.2109  0.2451
    1W        W41144  24.094  10.607   9.252 -0.1421  0.0350 -0.3574
    1W        W41145   7.067  13.599   7.433  0.1005 -0.2423  0.0266
    1W        W41146  12.401   5.852   2.824 -0.1861  0.5254 -0.0716
    1W        W41147   4.963  18.078   8.244 -0.0165  0.1408 -0.3466
    1W        W41148  25.764   3.318   0.537 -0.0717  0.0905 -0.3310
    1W        W41149   6.826  10.439   0.156  0.1884  0.2241 -0.0216
    1W        W41150   4.661  22.925   0.920  0.1951  0.5275  0.1336
    1W        W41151  25.525  13.797   7.401 -0.0975  0.0241 -0.2427
    1W        W41152  24.166   9.689   7.295  0.0672 -0.1162 -0.1556
    1W        W41153   5.942  22.711   8.063 -0.0301  0.0598  0.1881
    1W        W41154  15.974   1.631   3.272  0.2555 -0.2163  0.3725
    1W        W41155  28.303  25.656   1.241  0.0327  0.1563 -0.1386
    1W        W41156  25.676   2.841   7.136  0.4543  0.1407 -0.0997
    1W        W41157   1.528  20.041   7.504  0.1425 -0.0205 -0.0183
    1W        W41158  18.012  28.303   0.527 -0.0778 -0.2749  0.3728
    1W        W41159  19.247  10.587   6.531 -0.1221 -0.0737  0.1460
    1W        W41160   3.297  29.182   6.782 -0.0861  0.4601 -0.3714
    1W        W41161  16.275  10.491   7.224 -0.0198 -0.0496 -0.3153
    1W        W41162  26.447  29.235   1.865 -0.0341  0.1240 -0.1960
    1W        W41163   1.939  13.715   1.374 -0.1419  0.3922  0.1283
    1W        W41164  21.235   5.261   2.134 -0.2687 -0.0987  0.2866
    1W        W41165  22.374  28.765   2.925  0.0424 -0.2133 -0.2495
    1W        W41166   0.491  17.603   6.635 -0.1188  0.2908 -0.2800
    1W        W41167   3.394  16.578   7.909  0.2662  0.0876 -0.1583
    1W        W41168   4.840  17.995   6.707 -0.2201  0.0177 -0.1814
    1W        W41169   1.410   9.071   9.329  0.2086  0.1668 -0.0027
    1W        W41170  17.644   6.619   6.916  0.0460  0.1777 -0.1317
    1W        W41171  28.175   1.287   1.880 -0.1906  0.1229 -0.0804
    1W        W41172  21.513  22.631   2.190 -0.1065  0.0754 -0.1198
    1W        W41173  19.118   0.425   2.000 -0.0929  0.1550 -0.2607
    1W        W41174  27.711   8.736   1.769 -0.1047  0.1955  0.0365
    1W        W41175   5.633  10.478   8.971 -0.1487  0.2972 -0.1852
    1W        W41176  11.355  23.941   0.020  0.0895  0.1404  0.2991
    1W        W41177  19.614  23.105   7.574 -0.0332  0.2985  0.0710
    1W        W41178  13.570  26.830   9.389 -0.1704  0.1809  0.4393
    1W        W41179   6.473   6.983   2.947 -0.2812 -0.1734  0.2537
    1W        W41180  26.502   3.823   6.948 -0.2155  0.1177  0.1748
    1W        W41181  21.357  27.684   2.692 -0.3814 -0.2373  0.0323
    1W        W41182  24.051  19.034   7.973  0.3610  0.1237 -0.0486
    1W        W41183  17.075   5.283   8.893 -0.4386  0.2488 -0.0945
    1W        W41184   3.168  29.447   7.736  0.0362  0.1777 -0.2022
    1W        W41185  13.719  25.752   8.370  0.0165 -0.0411 -0.1821
    1W        W41186  27.535  21.406   8.068 -0.1509 -0.0864  0.2110
    1W        W41187  20.595   2.644   7.199 -0.2427 -0.1147  0.1632
    1W        W41188  26.593   2.711   7.008 -0.1022 -0.2470 -0.0881
    1W        W41189  26.185   1.502   0.636  0.0188 -0.0655  0.1073
    1W        W41190  11.339   9.671   0.318 -0.2132 -0.1341  0.2396
    1W        W41191   7.302   4.100   8.734 -0.0309  0.0458 -0.2462
    1W        W41192  16.289  22.962   1.989  0.1973 -0.0660 -0.0640
    1W        W41193  12.182  14.326   2.097 -0.0553  0.0721 -0.0593
    1W        W41194  22.606  24.901   7.165  0.0535  0.1531  0.3797
    1W        W41195   7.543  19.219   8.803 -0.2700 -0.0231 -0.2059
    1W        W41196   7.511   4.655   8.864 -0.1026 -0.2960 -0.0878
    1W        W41197  18.125  27.144   9.372 -0.5145  0.0253  0.4135
    1W        W41198  29.468  19.549   0.368  0.0997 -0.1966 -0.0586
    1W        W41199  12.846   3.337   9.178 -0.4879  0.0090 -0.1064
    1W        W41200  21.415   0.456   2.156  0.2266 -0.1324 -0.2561
    1W        W41201  15.601  15.412   8.167 -0.0392  0.1316 -0.0052
    1W        W41202   0.731  23.076   1.398 -0.4919 -0.1530 -0.2664
    1W        W41203  20.620   6.744   1.818  0.2318  0.1918 -0.0674
    1W        W41204  12.687  11.427   2.318  0.1268 -0.0099 -0.0749
    1W        W41205  20.776   9.241   8.288  0.1012  0.1049 -0.2938
    1W        W41206  15.312  19.477   9.158  0.0749 -0.3474 -0.0985
    1W        W41207  11.698  22.850   8.901 -0.2907  0.1062 -0.1847
    1W        W41208  20.521  17.378   7.545  0.0736  0.0411 -0.0098
    1W        W41209   1.269  19.938   8.882 -0.1747  0.1440 -0.1723
    1W        W41210  11.726  10.926   7.285 -0.3540 -0.0045  0.1788
    1W        W41211   8.479   3.674   1.720  0.2944  0.0836  0.0822
    1W        W41212   6.347  18.174   1.812  0.2878  0.1469  0.1520
    1W        W41213  23.502  14.536   0.623  0.0959  0.0184  0.0361
    1W        W41214   2.320  19.528   6.717  0.2079 -0.2273  0.0045
    1W        W41215   9.428  17.488   5.947  0.3175 -0.2250  0.0695
    1W        W41216  27.521   2.621   8.092 -0.0084 -0.0958 -0.1251
    1W        W41217   2.753   8.716   9.195 -0.1255 -0.0514 -0.1354
    1W        W41218  15.348  24.173   0.748 -0.2381  0.1288 -0.1481
    1W        W41219  25.709   4.690   9.071 -0.2696 -0.0961 -0.1963
    1W        W41220  14.233  15.411   1.317 -0.1114 -0.0301 -0.1434
    1W        W41221  18.959  25.585   2.302  0.0657  0.2373  0.0464
    1W        W41222  25.120   3.993   8.068 -0.1951 -0.1351 -0.2523
    1W        W41223  19.849  23.787   2.491  0.2127  0.0452  0.3161
    1W        W41224   4.753  14.543   1.256  0.3317 -0.4705  0.2035
    1W        W41225  11.505  10.495   0.282  0.2165  0.2289 -0.1802
    1W        W41226  12.431   9.147   7.825 -0.1606  0.0668 -0.1868
    1W        W41227  27.310   5.256   7.433 -0.1462  0.0121 -0.1430
    1W        W41228  12.834  20.182   0.504 -0.1397 -0.1686  0.0316
    1W        W41229  25.087  12.214   8.043  0.1196 -0.0042 -0.2252
    1W        W41230   1.264  18.929   2.222 -0.1524  0.2680  0.2109
    1W        W41231   0.916   3.949   7.164  0.0758 -0.0121 -0.0722
    1W        W41232  12.462  21.480   0.608  0.0411  0.1031  0.2197
    1W        W41233  12.737  18.043   1.691 -0.1726  0.1354 -0.0187
    1W        W41234   2.469   5.537   8.189 -0.0556  0.2089  0.1376
    1W        W41235   8.910   4.633   7.656  0.1817 -0.0419  0.0258
    1W        W41236  12.001  27.477   2.298  0.2124 -0.1422  0.0687
    1W        W41237   5.101  23.215   9.280  0.0938 -0.0118 -0.0428
    1W        W41238  22.453  16.289   1.591  0.3054  0.0970  0.3024
    1W        W41239  10.041  23.758   6.850  0.0331  0.1259  0.2663
    1W        W41240   6.524  26.465   2.176  0.2242  0.1482  0.3972
    1W        W41241  15.941   6.714   9.294  0.0081  0.0422 -0.1203
    1W        W41242  13.190   4.839   8.028 -0.1606  0.0846 -0.1254
    1W        W41243  12.299  18.216   7.390  0.0158  0.1092  0.3772
    1W        W41244  26.459  16.123   8.913 -0.3748  0.0067  0.0680
    1W        W41245   7.261   3.397   1.287 -0.1547  0.2699  0.0412
    1W        W41246  28.709   8.221   0.352 -0.0474  0.0109  0.1856
    1W        W41247   1.967  16.456   1.468  0.2700  0.0626  0.2196
    1W        W41248   6.036  19.053   1.210 -0.0360 -0.0839  0.0169
    1W        W41249   0.777  18.853   9.431 -0.1581 -0.2654  0.1698
    1W        W41250   5.279   0.239   9.208 -0.1133  0.1526 -0.1057
    1W        W41251  28.693  29.541   6.644 -0.2964  0.0213 -0.0929
    1W        W41252  14.847  12.455   9.028  0.0980 -0.0209  0.1218
    1W        W41253  11.339   6.919   0.688  0.0927  0.3062 -0.0751
    1W        W41254   2.760   3.910   8.310 -0.0114 -0.0913  0.0404
    1W        W41255  17.861   2.479   0.681  0.2257 -0.1499 -0.2269
    1W        W41256  12.200  24.862   0.015 -0.2225 -0.3040 -0.2022
    1W        W41257  26.346  13.787   7.582 -0.0949  0.0796  0.0800
    1W        W41258   9.983  29.785   1.135 -0.0176 -0.2164  0.2835
    1W        W41259  24.226   3.148   8.962 -0.2525 -0.0602 -0.2586
    1W        W41260  21.896   7.155   9.275 -0.3887 -0.2454 -0.0903
    1W        W41261  14.140   0.632   2.517  0.4035 -0.1284 -0.1461
    1W        W41262  27.225  17.457   2.355 -0.1361 -0.0063  0.1806
    1W        W41263   8.334  13.870   9.074  0.1368  0.0970  0.0325
    1W        W41264  29.562  10.631   7.927  0.0149 -0.0242 -0.3014
    1W        W41265  23.926   8.683   6.277 -0.0027  0.2289  0.2612
    1W        W41266  17.576  12.491   8.917 -0.0515 -0.1716 -0.1425
    1W        W41267   8.138  13.813   0.101  0.0648  0.0328  0.2529
    1W        W41268   7.793  18.811   1.932  0.1028 -0.1441 -0.2762
    1W        W41269  17.853   9.230   7.331  0.3062 -0.1441  0.1918
    1W        W41270  10.613  12.481   1.471  0.1247 -0.2088  0.0135
    1W        W41271   2.457  13.108   2.266  0.5951 -0.2353 -0.0044
    1W        W41272   2.541  25.665   6.459 -0.4818 -0.1301 -0.2104
    1W        W41273   7.940   9.511   7.005  0.2471  0.1258 -0.1081
    1W        W41274  10.817  18.335   6.296 -0.1574  0.0690  0.1817
    1W        W41275  23.942   1.228   3.319 -0.2530  0.0214 -0.2363
    1W        W41276   0.501  10.557   6.660  0.2038  0.1659  0.1334
    1W        W41277  18.085   4.295   2.251 -0.0487  0.1262  0.0096
    1W        W41278   3.952  26.464   0.857  0.0660 -0.0575 -0.0965
    1W        W41279  17.727  15.085   0.558  0.0775 -0.0765  0.1934
    1W        W41280  14.369   5.720   2.153  0.0986 -0.0121 -0.4113
    1W        W41281   6.217  18.162   8.597 -0.0257  0.5156  0.0249
    1W        W41282  19.170   6.864   1.342 -0.2313  0.2011 -0.4188
    1W        W41283   6.397  23.872   5.911  0.0153  0.3383 -0.1603
    1W        W41284  21.601   1.536   7.382  0.2409  0.1222  0.1114
    1W        W41285   8.096  23.272   6.012 -0.1442 -0.0916 -0.2868
    1W        W41286   9.758  10.366   2.627 -0.0781  0.1478 -0.0449
    1W        W41287   1.697  29.779   2.774  0.0182 -0.2124 -0.0615
    1W        W41288  14.203  27.429   2.047  0.0263  0.1293  0.0772
    1W        W41289  23.878   3.105   9.382 -0.2044 -0.4107 -0.0698
    1W        W41290  25.505  23.433   2.462  0.2153  0.0754  0.1649
    1W        W41291  17.077   4.636   6.458 -0.1675  0.0590  0.1833
    1W        W41292  15.981   5.774   2.183  0.3145  0.3852 -0.2404
    1W        W41293   1.612   1.828   2.025  0.0309 -0.3472  0.0720
    1W        W41294   0.636   2.323   2.423 -0.0752 -0.0445 -0.3212
    1W        W41295  26.337  25.315   2.568  0.2309 -0.1104 -0.1702
    1W        W41296  16.386  14.792   6.597  0.0858 -0.1666  0.1971
    1W        W41297   0.904  20.376   6.857  0.3156 -0.0211 -0.0853
    1W        W41298  13.413  24.012   2.140 -0.2332 -0.2918 -0.2477
    1W        W41299  16.164   9.393   9.429  0.1282 -0.0214  0.2737
    1W        W41300  19.931  20.415   9.081  0.5054  0.1706 -0.0199
    1W        W41301  24.488  27.488   7.292 -0.1278 -0.0680 -0.2201
    1W        W41302   3.065   5.250   2.540 -0.4736 -0.0554  0.1738
    1W        W41303  17.965  22.007   0.701  0.3663 -0.1505  0.1172
    1W        W41304   0.368  15.859   1.462 -0.0288  0.0958 -0.2092
    1W        W41305  20.567  29.198   2.358 -0.1822 -0.2765 -0.1376
    1W        W41306  15.534  15.584   1.262 -0.2497  0.1403 -0.1788
    1W        W41307  12.145  25.245   7.196  0.0991  0.0698 -0.1214
    1W        W41308  12.528  22.624   5.926  0.1311 -0.0663 -0.1810
    1W        W41309  10.996   4.924   7.521 -0.2396 -0.2214  0.0983
    1W        W41310  12.211   7.121   0.860 -0.0740 -0.2263 -0.0288
    1W        W41311   3.943  25.278   2.072  0.1553 -0.1432 -0.0589
    1W        W41312  16.894   5.948   8.700  0.0589  0.0950  0.2666
    1W        W41313  28.406  26.813   6.491  0.2966 -0.0911  0.0689
    1W        W41314   2.541  16.193   8.106 -0.0781  0.3739  0.1296
    1W        W41315   6.751  25.311   8.915  0.1188  0.0060  0.2480
    1W        W41316  28.192  11.537   5.895 -0.0077  0.3077  0.0489
    1W        W41317  15.583   3.248   1.994  0.1791  0.1365  0.0810
    1W        W41318  14.674   9.964   8.747  0.1215 -0.1140 -0.2368
    1W        W41319  25.535   2.176   0.977  0.0028  0.1301  0.0212
    1W        W41320   3.205  14.014   7.953 -0.1378  0.1617  0.1788
    1W        W41321  25.090   7.865   6.570  0.1276  0.1651 -0.1588
    1W        W41322   4.380  24.241   7.231 -0.0630 -0.3108 -0.1561
    1W        W41323  25.463   7.653   6.886 -0.1795 -0.0143 -0.0181
    1W        W41324  12.172  16.117   0.490  0.2143 -0.0353  0.2528
    1W        W41325  23.830   0.081   7.243 -0.1316  0.2398  0.1425
    1W        W41326   0.758  26.393   7.994  0.0378  0.0531  0.1637
    1W        W41327  25.170  21.352   0.887  0.2582  0.0828  0.3924
    1W        W41328  11.458  27.175   7.439 -0.1170  0.1470 -0.0557
    1W        W41329  17.689  23.336   8.801  0.0448  0.2543 -0.0996
    1W        W41330  23.317  28.982   1.317  0.0654  0.3527  0.0542
    1W        W41331  21.722  16.651   8.639 -0.0652 -0.0417 -0.1116
    1W        W41332   2.804  22.582   9.408 -0.0303 -0.2151 -0.1419
    1W        W41333  25.685   7.598   0.736 -0.3505 -0.0278  0.2717
    1W        W41334  17.045  29.813   8.477  0.4664  0.0850 -0.0114
    1W        W41335   7.885  20.195   8.979 -0.1057  0.0872 -0.1392
    1W        W41336  20.382   9.232   8.606 -0.2617  0.2444 -0.1553
    1W        W41337  24.613  11.385   7.866 -0.2265 -0.0684  0.0864
    1W        W41338  12.833   3.632   7.692 -0.0748 -0.0963 -0.2870
    1W        W41339  20.195  12.188   0.757 -0.1254 -0.2478  0.1848
    1W        W41340  17.358   4.566   7.405 -0.1614 -0.0599  0.1410
    1W        W41341   2.934  22.265   8.925  0.1011 -0.1874 -0.1943
    1W        W41342  18.374   7.308   8.468 -0.1158 -0.3247  0.0378
    1W        W41343  14.740  29.383   2.723  0.1408 -0.1257 -0.2704
    1W        W41344   9.253   7.200   2.574 -0.0510 -0.1331  0.1196
    1W        W41345  27.265   9.022   0.550 -0.1012 -0.2312  0.0333
    1W        W41346  12.617   1.985   1.677 -0.4409 -0.0801  0.1854
    1W        W41347  20.988  11.497   9.222 -0.1238  0.0887  0.1649
    1W        W41348  12.986   5.958   8.319 -0.1286 -0.1699  0.1626
    1W        W41349  19.658  27.089   0.268  0.2356 -0.2706 -0.0747
    1W        W41350  29.174   5.320   9.415  0.0453  0.1017  0.0389
    1W        W41351   9.553  19.811   2.336 -0.0478  0.2044 -0.1850
    1W        W41352   2.336   9.512   9.360  0.1470 -0.1008  0.4644
    1W        W41353  24.829  16.235   6.409  0.1856 -0.0072 -0.1120
    1W        W41354  15.994   6.290   7.084 -0.0222  0.1754 -0.1810
    1W        W41355  21.851  14.970   8.472  0.0210 -0.4078  0.0900
    1W        W41356  28.755  20.198   0.616 -0.3270 -0.2628  0.0316
    1W        W41357  26.561   6.697   7.943  0.1380 -0.2713 -0.2325
    1W        W41358  16.808   2.004   1.411 -0.0179  0.0438 -0.1544
    1W        W41359   1.841  15.294   8.348  0.0538  0.1746  0.1017
    1W        W41360  11.161   5.065   9.101  0.2839  0.1419  0.0642
    1W        W41361  19.888   4.229   8.051 -0.2263  0.0067  0.0271
    1W        W41362  25.678   1.885   2.601 -0.1319 -0.2103  0.0272
    1W        W41363  24.782  15.564   7.584 -0.0129  0.0538  0.1566
    1W        W41364  11.311   0.858   1.607 -0.0814  0.2745  0.0301
    1W        W41365  26.016   3.704   7.562 -0.1680  0.1360 -0.0464
    1W        W41366  21.664  29.355   0.494 -0.0267  0.0143  0.2107
    1W        W41367  11.722  25.735   9.298 -0.2955  0.1656  0.1856
    1W        W41368  21.024  27.252   2.684 -0.0495  0.0531 -0.0058
    1W        W41369   8.925  18.161   0.226 -0.3341 -0.0151 -0.2527
    1W        W41370  13.432  23.253   1.467 -0.0050 -0.4096  0.1726
    1W        W41371  17.936  14.750   0.237  0.3560 -0.2196 -0.1438
    1W        W41372  12.544   9.809   8.592  0.3387 -0.1096  0.2617
    1W        W41373  16.970   0.039   2.922 -0.0084 -0.2758 -0.0746
    1W        W41374  12.569  28.317   2.885 -0.1370 -0.1955  0.1439
    1W        W41375   8.104   4.482   8.150 -0.1718 -0.0704 -0.1657
    1W        W41376  10.952  25.973   1.034  0.3113 -0.0122  0.1876
    1W        W41377   1.716  25.417   7.044 -0.0470  0.1078  0.1345
    1W        W41378   9.304  22.359   0.701 -0.0265 -0.0204  0.4380
    1W        W41379  23.897   6.369   1.713  0.0261 -0.0405  0.0287
    1W        W41380  12.858  21.481   9.014 -0.1954 -0.0669 -0.0825
    1W        W41381   4.756   7.589   2.123  0.1008 -0.2535 -0.2749
    1W        W41382  14.571  21.754   7.351 -0.1578  0.2756  0.1071
    1W        W41383  26.527  29.504   6.870  0.0644 -0.0416 -0.1023
    1W        W41384  16.776  21.355   1.019  0.1894  0.3118 -0.0525
    1W        W41385  17.865   7.477   7.638 -0.1989 -0.1232 -0.2369
    1W        W41386  27.185  27.500   7.035 -0.1561 -0.0522  0.3163
    1W        W41387   3.633   4.464   1.924 -0.2523  0.0913  0.2609
    1W        W41388  19.740  17.626   1.012 -0.1544 -0.1368 -0.1490
    1W        W41389  25.451  24.443   6.428  0.3240  0.1291 -0.0322
    1W        W41390  13.520  10.401   1.727  0.3025  0.0904  0.2512
    1W        W41391   6.781   3.468   2.149  0.0089 -0.1340  0.4044
    1W        W41392  29.497  14.531   7.032 -0.0036  0.4282 -0.0437
    1W        W41393   1.872  12.275   2.158  0.1506  0.0702 -0.2045
    1W        W41394  25.352  24.251   0.706 -0.0782 -0.0052 -0.1629
    1W        W41395   5.034   7.693   0.598 -0.1105  0.1765  0.2434
    1W        W41396  22.046  25.467   2.463  0.0707 -0.1843  0.2045
    1W        W41397  19.297   0.432   0.091 -0.0726 -0.0266 -0.2861
    1W        W41398   3.186   7.568   2.445 -0.0356  0.1705 -0.2827
    1W        W41399   2.996   2.173   9.141  0.1822 -0.0034 -0.0277
    1W        W41400   0.261  20.451   0.775 -0.1838 -0.3909 -0.1635
    1W        W41401  21.034   2.484   2.582  0.0352  0.1074 -0.1075
    1W        W41402   9.288  24.438   6.582  0.1384 -0.0942 -0.1736
    1W        W41403   5.343  25.961   9.113  0.0503 -0.0493  0.2106
    1W        W41404  10.093  10.671   0.860  0.1855 -0.1260 -0.0879
    1W        W41405   1.469  17.535   7.906 -0.1828  0.2340  0.1926
    1W        W41406  27.466  22.164   9.442 -0.1888  0.2871  0.0417
    1W        W41407   2.970   6.192   7.562 -0.0065 -0.1742 -0.2387
    1W        W41408   7.561  17.553   7.522 -0.1559  0.0439  0.1468
    1W        W41409   8.449   2.386   8.832  0.0085  0.3373 -0.2474
    1W        W41410   4.467  24.656   1.433 -0.0360 -0.0476  0.1408
    1W        W41411  22.127  11.876   1.938 -0.1153 -0.0963 -0.2523
    1W        W41412  16.688   5.478   1.439  0.4246  0.2419  0.1550
    1W        W41413  16.275   9.703   7.956 -0.0412 -0.3072 -0.1881
    1W        W41414  17.653  20.039   2.777  0.1351  0.1047  0.1902
    1W        W41415  20.796  14.465   0.412  0.1821 -0.0977  0.0264
    1W        W41416  17.734  20.591   2.178  0.3064  0.1789  0.0999
    1W        W41417  11.715   1.682   1.472 -0.1662  0.1838  0.0857
    1W        W41418   4.100  20.378   7.166 -0.2197  0.1890  0.0515
    1W        W41419  18.821  11.575   0.263  0.2946  0.1692  0.0079
    1W        W41420  27.830  18.824   7.068  0.0799  0.0839  0.0476
    1W        W41421  18.123  22.658   8.704 -0.0944  0.1573  0.1921
    1W        W41422   8.245  19.128   8.159 -0.0543  0.1827  0.2020
    1W        W41423  24.410  24.957   7.128  0.0453  0.1554  0.0169
    1W        W41424   3.147   1.469   2.238  0.1110  0.0138 -0.1403
    1W        W41425   2.263  16.465   5.596  0.0604  0.2096  0.2324
    1W        W41426   4.320  23.500   2.148  0.1896  0.3434  0.1116
    1W        W41427  23.813  11.150   0.650  0.1284  0.1090 -0.1330
    1W        W41428   0.838  15.797   2.119 -0.0230  0.1939  0.1068
    1W        W41429  16.790   0.365   8.414 -0.1767  0.0769 -0.0458
    1W        W41430   9.908  25.512   1.257 -0.1417 -0.0717 -0.2706
    1W        W41431  18.827  19.131   0.236  0.0043  0.0391 -0.1086
    1W        W41432   3.191  19.995   8.297  0.0551  0.0217 -0.1620
    1W        W41433  13.829  13.389   7.398 -0.2136 -0.0678 -0.1897
    1W        W41434   1.599  14.428   6.694  0.0793  0.0512 -0.2556
    1W        W41435   3.636   7.277   2.405  0.1117 -0.0164  0.2462
    1W        W41436  24.892   7.755   1.903 -0.0821 -0.2908 -0.0454
    1W        W41437  15.446  24.974   7.746 -0.0547 -0.4047  0.0412
    1W        W41438  17.087  28.109   1.446  0.1846 -0.0931  0.2976
    1W        W41439   9.203  29.352   8.050  0.1624  0.0188  0.2096
    1W        W41440   6.461   0.038   8.333 -0.0083 -0.2702 -0.3021
    1W        W41441  22.746   1.174   2.383  0.1607  0.0030  0.1059
    1W        W41442   0.475   3.223   8.935  0.1337  0.1449 -0.2600
    1W        W41443  22.321  26.397   7.729  0.0361 -0.0267  0.2262
    1W        W41444   5.163  20.185   5.618  0.1296  0.0102 -0.0552
    1W        W41445   8.097  25.592   1.332  0.2482  0.3475  0.1779
    1W        W41446  18.279   9.390   6.071  0.1279 -0.1380 -0.0636
    1W        W41447  25.921  26.070   9.410  0.1328 -0.0481  0.0173
    1W        W41448  24.992  16.331   9.030 -0.1823  0.0371 -0.2870
    1W        W41449   0.494  16.632   9.239 -0.2291 -0.3750  0.0020
    1W        W41450  22.369  26.919   8.156  0.2879  0.2810 -0.0102
    1W        W41451  28.503  18.753   0.608 -0.0176  0.0469  0.0324
    1W        W41452  25.444  13.542   0.297 -0.0252  0.2046  0.2258
    1W        W41453  22.785  10.905   8.383  0.0723 -0.1691 -0.0127
    1W        W41454  29.366   5.701   6.716  0.0969 -0.2496  0.1121
    1W        W41455  12.441  12.901   0.984  0.1948  0.1145 -0.2033
    1W        W41456  10.273   3.280   9.257 -0.0863 -0.0598 -0.0233
    1W        W41457  11.823  27.013   9.443 -0.1601 -0.0763 -0.1615
    1W        W41458  25.651   9.425   1.004 -0.2104 -0.0683  0.1722
    1W        W41459  12.056  15.902   2.409  0.2437  0.1325 -0.2414
    1W        W41460  15.214  28.830   7.767  0.1577 -0.2887 -0.0790
    1W        W41461   6.649  25.019   9.373 -0.0828 -0.3364 -0.0644
    1W        W41462  23.658  28.488   2.091  0.3067 -0.1776  0.1001
    1W        W41463  16.981   5.826   7.047  0.0485 -0.0243  0.0699
    1W        W41464  28.354   6.446   8.050 -0.3065  0.1658  0.0276
    1W        W41465  15.771  18.212   8.831 -0.0319  0.3115 -0.1326
    1W        W41466   2.927  19.949   1.664  0.1450 -0.4123 -0.2306
    1W        W41467  26.868  19.353   0.236  0.2145 -0.1629  0.0692
    1W        W41468  11.991   4.426   0.166  0.2768 -0.0556 -0.0339
    1W        W41469   8.863  20.584   1.630 -0.4366 -0.3429  0.1608
    1W        W41470  11.541   4.748   9.330 -0.0202 -0.1916 -0.1546
    1W        W41471   0.944  20.630   1.623 -0.1599  0.0708 -0.0467
    1W        W41472  16.597  12.247   6.605 -0.1023 -0.1439  0.1905
    1W        W41473  28.601   3.565   7.403  0.0473 -0.1441 -0.1793
    1W        W41474   9.714   3.650   3.312 -0.0442 -0.3351 -0.3145
    1W        W41475   0.640  13.357   0.195 -0.1996  0.1981 -0.1523
    1W        W41476  17.338  20.697   7.362  0.1927 -0.0602  0.5539
    1W        W41477  13.687  10.497   2.701  0.3058  0.0104 -0.0252
    1W        W41478  19.687  10.984   0.252 -0.1677 -0.2522 -0.3088
    1W        W41479   8.289   4.979   0.454  0.0495 -0.1148  0.3751
    1W        W41480  20.944  21.239   9.418 -0.1804 -0.0381 -0.0946
    1W        W41481   1.838  20.922   7.712  0.0019  0.0761 -0.1616
    1W        W41482   6.630   0.988   8.659  0.0426 -0.0504 -0.0202
    1W        W41483   4.953   2.392   9.271 -0.1989  0.0457 -0.2320
    1W        W41484  10.634  20.977   7.968 -0.2295 -0.1750 -0.2519
    1W        W41485  26.823   4.555   1.252 -0.0335 -0.0046 -0.0548
    1W        W41486  20.246   9.828   7.833  0.1731 -0.0004  0.3703
    1W        W41487  27.239  23.714   0.962  0.0087  0.0989 -0.0835
    1W        W41488  29.806  19.449   1.895  0.0763  0.1081  0.0113
    1W        W41489  29.704  28.281   1.701 -0.1819 -0.1681 -0.2897
    1W        W41490  24.143  23.258   1.432 -0.0067 -0.0438 -0.3481
    1W        W41491  22.938  29.061   2.309 -0.2552  0.0512 -0.1271
    1W        W41492   8.172   0.676   0.593 -0.2943 -0.2437  0.2251
    1W        W41493  14.727  22.272   7.566 -0.0386 -0.0354  0.0398
    1W        W41494   1.031  12.076   7.599 -0.0529  0.0296  0.2213
    1W        W41495  10.346  26.869   3.168  0.1172 -0.1437 -0.2201
    1W        W41496  29.284   2.407   0.619 -0.1742  0.0944 -0.2114
    1W        W41497  21.175   4.987   7.859  0.0601 -0.2304 -0.0307
    1W        W41498   0.460  13.335   6.722 -0.0925  0.1791 -0.0364
    1W        W41499  24.481  16.911   7.832 -0.2189 -0.2427 -0.0201
    1W        W41500   2.330  28.243   0.209 -0.2909 -0.1399 -0.1037
    1W        W41501   7.890   0.308   1.110  0.2070 -0.2267  0.0124
    1W        W41502  13.848  16.668   7.311 -0.0385 -0.1452  0.0608
    1W        W41503  26.432  15.731   0.169  0.1001 -0.0403  0.2575
    1W        W41504   2.567  25.174   6.593 -0.0936  0.1609  0.4169
    1W        W41505   1.410  15.194   7.448 -0.3279  0.3841  0.2362
    1W        W41506  24.231   3.562   1.497 -0.0303  0.2645 -0.0655
    1W        W41507  27.672  11.688   6.685 -0.1164 -0.2598  0.2393
    1W        W41508  16.892   9.145   6.753 -0.3985 -0.0904  0.0014
    1W        W41509  18.696  24.289   0.317  0.0644  0.0049 -0.0017
    1W        W41510  25.829   9.812   9.015 -0.1685 -0.3785  0.0355
    1W        W41511   1.506  22.208   2.149  0.4099 -0.0440  0.0058
    1W        W41512   9.598  19.287   7.218 -0.2278  0.0716 -0.1179
    1W        W41513  23.279  21.652   7.725  0.0184  0.1834 -0.1088
    1W        W41514   2.685   4.179   3.097 -0.0341  0.0389 -0.1240
    1W        W41515  25.549   0.520   2.951 -0.1024 -0.2873  0.0948
    1W        W41516  11.360  17.089   7.602 -0.3335  0.1833  0.0332
    1W        W41517  24.359  24.116   0.468  0.1771  0.3982 -0.0468
    1W        W41518  23.481  15.990   0.046 -0.1242  0.1336 -0.0580
    1W        W41519   6.970   1.118   8.303 -0.0663  0.0851 -0.1743
    1W        W41520  24.376   9.329   9.263 -0.2970  0.0449 -0.0124
    1W        W41521  17.684  28.968   3.214  0.0574  0.0446  0.1108
    1W        W41522  11.540  10.286   8.116 -0.0666  0.0267 -0.1280
    1W        W41523   0.616   7.139   0.530 -0.0659  0.0494  0.0107
    1W        W41524  15.520  11.492   1.776  0.1531  0.2082  0.0612
    1W        W41525  26.718  10.367   7.600  0.1290  0.0479  0.2345
    1W        W41526   0.956  12.512   8.435 -0.2796  0.0587  0.2138
    1W        W41527  28.886   5.880   2.016  0.2364  0.1274  0.1345
    1W        W41528  27.559  19.898   8.291 -0.2128 -0.0110 -0.0069
    1W        W41529  20.123  22.374   2.573 -0.1482 -0.1574 -0.2735
    1W        W41530  18.610   9.495   7.770  0.0239 -0.2189  0.4887
    1W        W41531  12.203  23.551   8.222  0.0642  0.1280 -0.0185
    1W        W41532  24.295  18.226   0.603  0.1377  0.0013 -0.0123
    1W        W41533  20.716  24.562   0.681  0.1825 -0.1254  0.2363
    1W        W41534   4.527  20.861   5.672  0.5010 -0.0375  0.0102
    1W        W41535  18.020  29.564   3.675  0.2833  0.1573 -0.0379
    1W        W41536  23.552  18.247   1.878  0.1536 -0.1918 -0.1416
    1W        W41537  21.408  14.676   7.234 -0.1798 -0.2543 -0.1227
    1W        W41538  27.243   5.316   9.262  0.0366 -0.1949  0.0118
    1W        W41539   9.252   2.117   1.887 -0.0730  0.0563 -0.0367
    1W        W41540   6.479  23.187   8.682 -0.1752 -0.2888  0.0734
    1W        W41541   9.383  15.922   0.759  0.1287 -0.2673  0.0974
    1W        W41542   3.890  14.979   8.694 -0.0242 -0.0333  0.3681
    1W        W41543  16.224   9.007   0.502 -0.2718  0.0370  0.2581
    1W        W41544  13.291   4.690   2.830  0.0863  0.0618  0.1544
    1W        W41545   0.835  15.155   6.670  0.0333  0.0219  0.2614
    1W        W41546   0.099  11.780   1.890 -0.1239  0.1597  0.1802
    1W        W41547  24.337  20.370   1.622 -0.4019 -0.3114 -0.0257
    1W        W41548  12.677  20.388   1.595 -0.0628  0.0133 -0.1427
    1W        W41549  13.565   0.045   8.940  0.0548  0.2244  0.1255
    1W        W41550   6.810  16.590   1.509  0.1963  0.0603 -0.1654
    1W        W41551  25.061   7.369   6.563  0.0332  0.2564 -0.1657
    1W        W41552   5.688  22.138   5.944 -0.0795 -0.2563  0.2513
    1W        W41553  20.815   7.894   6.992 -0.0313  0.0049  0.2675
    1W        W41554  26.435  17.242   8.081 -0.0674  0.1513 -0.1389
    1W        W41555  14.863  18.035   8.471  0.0424  0.0932 -0.2534
    1W        W41556  10.478   3.069   7.562 -0.2411  0.1487 -0.1244
    1W        W41557   4.020   4.489   1.609 -0.1148 -0.5540  0.0007
    1W        W41558  10.215  24.983   1.825 -0.2756  0.4031  0.0352
    1W        W41559   7.202   2.489   7.563 -0.1966 -0.0130 -0.1188
    1W        W41560   3.381  23.994   5.694 -0.0850  0.3497 -0.2784
    1W        W41561  18.118   7.513   1.351  0.0159  0.0762  0.0095
    1W        W41562  18.086   7.249   7.155 -0.1747  0.1365 -0.1504
    1W        W41563  23.631  11.853   7.195  0.2459 -0.0151 -0.2553
    1W        W41564  11.233  27.574   9.281  0.0268  0.0473  0.0616
    1W        W41565  11.233  21.178   6.896 -0.0057  0.0225 -0.1093
    1W        W41566   2.690  26.678   7.319 -0.1086  0.0336 -0.1034
    1W        W41567  13.318  12.528   7.325  0.2555 -0.3468  0.0997
    1W        W41568  17.394  22.290   1.262  0.3697  0.1429 -0.0581
    1W        W41569   3.839  28.784   8.213 -0.0030 -0.1095 -0.3079
    1W        W41570   5.025   6.928   3.149  0.2275  0.0160 -0.1794
    1W        W41571  16.708  26.177   0.676 -0.2376  0.0913 -0.0038
    1W        W41572   0.052  26.430   0.009 -0.0287  0.0895  0.3748
    1W        W41573   6.179  14.668   6.120  0.2340 -0.1386  0.0404
    1W        W41574  27.393  13.264   8.132  0.1951 -0.0324  0.2908
    1W        W41575  11.477  23.242   8.584 -0.0777 -0.1396 -0.0944
    1W        W41576   5.115  20.728   1.869  0.1670  0.0565  0.1243
    1W        W41577  16.549  27.827   9.413 -0.2794  0.1450  0.1606
    1W        W41578  20.055  28.868   3.041 -0.0770  0.1582 -0.1889
    1W        W41579   7.810  21.263   6.577 -0.0675  0.1570  0.0835
    1W        W41580  17.057   6.267   0.350 -0.0716 -0.3874 -0.0441
    1W        W41581  20.359  19.145   9.306  0.1655 -0.3896  0.1118
    1W        W41582  18.829  13.414   2.070  0.2183  0.2421 -0.0271
    1W        W41583  28.930  11.791   8.451 -0.2953 -0.0886  0.1649
    1W        W41584   3.764   8.951   3.741  0.3658  0.1652 -0.0498
    1W        W41585  16.734  13.680   7.332  0.0650  0.0520 -0.3995
    1W        W41586   4.817  17.015   0.777 -0.0855 -0.3159 -0.1174
    1W        W41587  13.445  22.668   8.419  0.2276 -0.1675 -0.0074
    1W        W41588   9.099   3.974   0.130  0.1536 -0.1373  0.1088
    1W        W41589  10.778  10.539   7.789 -0.1027 -0.0517 -0.2267
    1W        W41590   6.107   8.758   2.871  0.0643  0.2284  0.1099
    1W        W41591  21.828  28.716   3.061 -0.2046 -0.1108 -0.0059
    1W        W41592  25.567  11.243   7.277  0.0136  0.1585  0.0034
    1W        W41593   5.117  16.411   2.045 -0.0231  0.2091 -0.2241
    1W        W41594  21.221  11.899   6.679  0.1239  0.2008  0.0500
    1W        W41595  18.742   7.807   7.508 -0.1221  0.0118  0.3840
    1W        W41596  12.329  25.698   0.597 -0.1059  0.1158  0.1979
    1W        W41597  22.374  25.033   2.246  0.1047 -0.0508 -0.1853
    1W        W41598   9.664  26.684   2.437 -0.1495 -0.0197 -0.1724
    1W        W41599  26.855  25.128   7.440 -0.1731 -0.1087 -0.3025
    1W        W41600  24.458  12.536   0.583  0.0131 -0.0034  0.0996
    1W        W41601   5.338  21.294   6.260  0.1071 -0.2698  0.1090
    1W        W41602  12.818  24.563   6.252  0.3538  0.3443  0.0484
    1W        W41603   2.686  25.736   0.670  0.2953  0.0062 -0.1577
    1W        W41604   4.494  18.691   7.830 -0.5502 -0.4234 -0.2188
    1W        W41605  18.577   8.676   1.362  0.1293 -0.1825 -0.0185
    1W        W41606  13.777  24.206   0.088  0.0158  0.0017  0.2145
    1W        W41607   1.547  20.877   6.322  0.1396 -0.2296 -0.4092
    1W        W41608  26.208  12.043   1.111 -0.0897 -0.0113 -0.0231
    1W        W41609  23.215   3.642   0.570  0.1910  0.2328  0.1844
    1W        W41610  23.163  12.536   1.212 -0.0845  0.1155  0.1745
    1W        W41611  27.200   4.514   0.084  0.0621 -0.1771  0.1321
    1W        W41612  13.870  10.328   2.140  0.1659 -0.0482 -0.0531
    1W        W41613  25.796  12.855   5.835 -0.2251 -0.0086  0.2695
    1W        W41614  22.157  21.783   0.880  0.0834 -0.1922  0.1569
    1W        W41615  27.982  20.463   0.456 -0.0761 -0.1686  0.2363
    1W        W41616   6.631  28.171   8.655 -0.1047  0.2221  0.0872
    1W        W41617  18.369  26.022   1.829 -0.1588 -0.3377  0.0274
    1W        W41618   0.199  27.760   9.004  0.1986  0.2329  0.0389
    1W        W41619  28.508   7.145   0.873 -0.0272 -0.1523  0.0007
    1W        W41620   8.005  28.385   2.643 -0.1206  0.4222 -0.1965
    1W        W41621  16.975   6.738   0.200  0.2244 -0.2576 -0.2416
    1W        W41622   9.105   0.713   8.689 -0.3165  0.0248 -0.1626
    1W        W41623  23.603   8.182   2.888  0.0744  0.2103  0.1914
    1W        W41624  11.548   1.386   1.166  0.1967  0.1132  0.1590
    1W        W41625  27.718  29.682   7.451 -0.1755 -0.5407  0.2310
    1W        W41626  17.781  22.374   7.931  0.0499  0.2181  0.2032
    1W        W41627   1.675  10.606   9.366  0.1790  0.0411 -0.2757
    1W        W41628  23.479   8.088   7.507  0.0616 -0.0238  0.0896
    1W        W41629   9.533  16.975   2.049 -0.0805  0.1068  0.3208
    1W        W41630   7.275   9.283   7.586  0.0838  0.2661 -0.0318
    1W        W41631   5.635  28.003   3.153  0.1431  0.5463 -0.5453
    1W        W41632  28.353  17.543   0.880 -0.2549  0.0319  0.2238
    1W        W41633   0.827  19.353   1.553 -0.0778 -0.1173 -0.2869
    1W        W41634  26.656   3.947   2.901  0.1088 -0.0540 -0.2782
    1W        W41635  14.174  19.944   6.839  0.0094 -0.1434  0.0033
    1W        W41636  28.468   3.766   8.314 -0.0317 -0.1222  0.0167
    1W        W41637  10.861  18.923   9.106  0.0837  0.2083 -0.2683
    1W        W41638  22.505   6.339   7.910 -0.1316  0.0531  0.0934
    1W        W41639  15.432   9.671   9.340 -0.0441 -0.3815 -0.1889
    1W        W41640  19.200  21.569   1.979 -0.3603 -0.0534 -0.2432
    1W        W41641  21.366  21.723   7.221  0.2671  0.0664 -0.0485
    1W        W41642  12.989  21.365   1.939 -0.0374  0.0794  0.0401
    1W        W41643   7.440  14.869   0.267  0.0342 -0.1090  0.1857
    1W        W41644  22.909  19.676   0.000 -0.0436 -0.1891  0.3004
    1W        W41645   8.017  19.024   7.453  0.3930 -0.2194  0.1146
    1W        W41646  21.670  24.203   2.079 -0.1649 -0.0466  0.0060
    1W        W41647  15.738  19.400   2.012  0.2416 -0.2364 -0.0092
    1W        W41648  23.793   0.281   8.483  0.1003  0.1178  0.0161
    1W        W41649  24.805   2.684   0.669  0.0296  0.1489 -0.2083
    1W        W41650  28.987  15.203   7.691  0.1004  0.0782 -0.2661
    1W        W41651   8.520  14.082   2.849 -0.1908 -0.3717 -0.0516
    1W        W41652   8.712   4.822   0.268 -0.0634  0.4426 -0.0012
    1W        W41653  27.778  15.443   0.933  0.0690  0.1636  0.0606
    1W        W41654   6.230   0.523   8.142 -0.3767 -0.1524 -0.0596
    1W        W41655  24.863  16.649   1.494  0.0582 -0.1676 -0.0019
    1W        W41656   2.919  21.896   8.208  0.2599  0.1422 -0.3540
    1W        W41657  23.107   6.410   7.834 -0.1136 -0.1497  0.4989
    1W        W41658  19.555  19.268   1.976 -0.0662 -0.0772 -0.1155
    1W        W41659  19.741   9.823   2.543 -0.1010  0.1313 -0.1022
    1W        W41660   0.059  18.832   8.353 -0.0799 -0.1204 -0.0672
    1W        W41661   2.131   3.521   0.050  0.2496 -0.1511 -0.0285
    1W        W41662  17.223  27.558   2.074  0.0979 -0.3267 -0.1240
    1W        W41663  15.494  20.259   7.148  0.1224  0.1638  0.0609
    1W        W41664  14.710   8.883   6.812  0.1912 -0.2549  0.0563
    1W        W41665   1.475  26.620   1.424  0.0681  0.1755  0.0527
    1W        W41666  29.535  23.710   7.134 -0.1784 -0.0653 -0.3187
    1W        W41667  23.991   6.245   1.255 -0.3498  0.0409  0.0730
    1W        W41668  24.401  16.633   5.603  0.1729  0.1232 -0.0962
    1W        W41669  15.297   9.707   1.504 -0.0770  0.0331  0.0060
    1W        W41670  25.732  15.157   8.909 -0.1004 -0.0023  0.1044
    1W        W41671  18.665  18.065   6.707 -0.0057 -0.1778 -0.0940
    1W        W41672  26.735   5.421   8.579  0.4103  0.1973  0.1268
    1W        W41673  13.643   1.055   3.996  0.0901  0.3259 -0.1730
    1W        W41674  28.361  13.061   0.621  0.2504  0.0985  0.1985
    1W        W41675  22.749  14.228   8.023  0.0357 -0.0238 -0.2848
    1W        W41676   5.758  11.408   0.990 -0.1051  0.1397  0.1997
    1W        W41677  20.321  12.131   0.187  0.1883 -0.0279  0.0478
    1W        W41678  27.634  23.638   8.278  0.0695 -0.2464 -0.2187
    1W        W41679   0.033  15.869   0.830  0.0357 -0.1174  0.0705
    1W        W41680  27.052  25.570   2.309 -0.1466 -0.0031 -0.3773
    1W        W41681  21.094  11.599   7.044  0.0977 -0.0349  0.1328
    1W        W41682  20.495   2.073   0.818  0.3623  0.3185  0.0446
    1W        W41683  15.086  12.589   8.628  0.2748 -0.1562  0.3036
    1W        W41684  28.485  12.532   2.829 -0.0512 -0.2559 -0.0796
    1W        W41685   8.068  16.133   8.349  0.1346 -0.1289  0.1362
    1W        W41686   7.211  28.789   0.381 -0.0814  0.1937 -0.2001
    1W        W41687  21.834   1.093   8.681  0.1759 -0.0197 -0.0002
    1W        W41688   6.930  21.371   1.049  0.2054  0.2497 -0.1444
    1W        W41689   0.611  19.356   2.525 -0.4953 -0.0946  0.0766
    1W        W41690  10.202   0.847   0.588  0.0886  0.0153  0.0596
    1W        W41691  25.284  22.601   1.305 -0.3359 -0.1598 -0.0390
    1W        W41692   9.198   6.431   9.191 -0.2321 -0.1777  0.0165
    1W        W41693  21.553  22.327   0.591 -0.0956  0.2117  0.2483
    1W        W41694  13.308  16.667   2.263 -0.2089  0.3436  0.0859
    1W        W41695   0.587  12.495   9.441 -0.2022 -0.0595  0.0093
    1W        W41696   2.412  14.077   6.634 -0.0424  0.0793  0.0777
    1W        W41697  15.347  14.494   7.787 -0.1713 -0.2201  0.4252
    1W        W41698   5.677  23.933   7.608 -0.2461  0.3068  0.0176
    1W        W41699  23.166   0.527   1.424 -0.0950 -0.1121 -0.1201
    1W        W41700   3.333   8.636   9.220 -0.0830  0.3439 -0.0430
    1W        W41701   9.282  25.782   5.724  0.0684 -0.1053  0.2187
    1W        W41702  22.163  23.184   1.649  0.2375  0.1015  0.0585
    1W        W41703  29.497  19.022   7.684 -0.0974 -0.0617  0.2434
    1W        W41704   3.074  15.653   1.336 -0.1226  0.2105  0.4472
    1W        W41705  23.916  10.284   0.905 -0.1710  0.1341  0.1290
    1W        W41706  27.555   4.446   7.453 -0.2310 -0.1665  0.1969
    1W        W41707   5.526   4.319   2.139  0.0093 -0.3509  0.1471
    1W        W41708  28.025  14.249   2.439  0.0564  0.0557  0.3613
    1W        W41709  16.062  21.472   1.500  0.0064  0.0200  0.0135
    1W        W41710  15.961  12.260   0.019  0.1699  0.0166  0.3508
    1W        W41711   9.873  13.934   7.463 -0.2284  0.1589 -0.2571
    1W        W41712   9.545  12.194   1.680  0.1644 -0.1065 -0.0319
    1W        W41713   1.733  24.170   0.076  0.0393  0.0921 -0.0746
    1W        W41714  29.687  24.766   0.864 -0.0062 -0.5376 -0.1520
    1W        W41715  16.522  25.516   2.345 -0.0620 -0.0438 -0.1184
    1W        W41716  24.402  20.560   7.184 -0.0316  0.0276 -0.0149
    1W        W41717   0.711   2.744   8.900 -0.0384  0.2092 -0.4958
    1W        W41718  11.394  13.579   7.968 -0.2784  0.2496  0.1207
    1W        W41719  17.610   3.590   8.253  0.0431 -0.0668 -0.0364
    1W        W41720  23.234  16.608   0.631 -0.0767  0.2560  0.1303
    1W        W41721   9.303  10.108   8.892 -0.3301  0.0375  0.2113
    1W        W41722  12.276   8.131   8.723  0.1909  0.1572  0.0112
    1W        W41723  10.752  23.025   1.242  0.0415 -0.3837  0.0581
    1W        W41724   0.397  21.765   7.537 -0.1541  0.1162  0.1125
    1W        W41725  11.291  29.657   1.572  0.0243 -0.2287 -0.3652
    1W        W41726  26.419  14.640   1.973  0.0370  0.2619 -0.0725
    1W        W41727  27.833  16.789   2.587 -0.0546  0.1729 -0.0525
    1W        W41728  18.971   1.722   0.348  0.0153  0.1156  0.0463
    1W        W41729  15.127  26.323   8.566 -0.0714 -0.1369 -0.2648
    1W        W41730  18.523  11.983   0.480 -0.1034 -0.0183 -0.2731
    1W        W41731  24.085   7.104   3.398  0.1018 -0.2151 -0.0201
    1W        W41732  26.236   5.975   2.583 -0.3053 -0.1180 -0.2735
    1W        W41733  18.807  27.943   2.225 -0.0413  0.0161 -0.1533
    1W        W41734   9.525   4.744   0.396 -0.0623  0.2509 -0.0397
    1W        W41735  11.076   5.919   1.359 -0.0185 -0.1601  0.2003
    1W        W41736   4.317  16.313   1.580 -0.3646  0.4535 -0.2143
    1W        W41737  28.746   7.741   7.201 -0.1290  0.3892 -0.1299
    1W        W41738  29.523  11.590   6.298 -0.1749 -0.1368 -0.0516
    1W        W41739   3.149  10.101   8.364  0.0606 -0.0169 -0.3569
    1W        W41740  21.483   4.608   7.691  0.3768  0.1687  0.0894
    1W        W41741  24.722   2.532   0.230  0.1576 -0.0143  0.1166
    1W        W41742   7.274  21.972   8.011  0.0377  0.0210 -0.1275
    1W        W41743   1.111   9.750   8.181 -0.1290  0.1060 -0.1330
    1W        W41744  21.112   0.522   8.281  0.1194  0.2068  0.3498
    1W        W41745  10.918   1.152   3.164  0.0149 -0.1533  0.2003
    1W        W41746  27.887  20.623   7.879 -0.1960 -0.2770  0.2489
    1W        W41747  11.219   9.550   3.060  0.2019 -0.0193  0.0711
    1W        W41748  10.054  16.635   7.694 -0.0512 -0.0154  0.0931
    1W        W41749  25.884  19.153   0.307  0.0097 -0.1692  0.0613
    1W        W41750   2.274   0.632   8.386 -0.0883 -0.1460 -0.1816
    1W        W41751  13.548  15.876   1.724 -0.2100 -0.0152  0.2704
    1W        W41752  13.236   7.786   2.701  0.1573  0.1571  0.0264
    1W        W41753  19.779  28.631   2.377  0.2518  0.4077  0.0091
    1W        W41754  10.045  13.091   9.403 -0.1980 -0.2127 -0.0510
    1W        W41755  18.662  27.677   1.741  0.0339  0.0938 -0.0484
    1W        W41756   6.112  16.928   2.035  0.2889  0.2243  0.1860
    1W        W41757  22.011  26.547   8.062 -0.1934 -0.5242  0.0384
    1W        W41758  22.337  18.851   6.896 -0.1159  0.1954  0.1079
    1W        W41759   4.584  20.552   9.354  0.0173  0.2421  0.1265
    1W        W41760  29.779  27.388   2.351  0.1974  0.3337 -0.0614
    1W        W41761  11.735  19.418   8.802 -0.0985 -0.0305  0.1419
    1W        W41762  23.728  22.289   0.168  0.0059  0.4844 -0.0032
    1W        W41763   7.708  16.427   8.456  0.1484  0.1631 -0.1986
    1W        W41764  27.036  29.414   6.968 -0.3383 -0.0099  0.1212
    1W        W41765   0.123   0.805   9.223 -0.1584 -0.0580 -0.3649
    1W        W41766   1.542   9.673   0.013  0.1783  0.1257  0.1835
    1W        W41767   9.407   9.998   2.838 -0.1549  0.3485  0.2026
    1W        W41768  29.169   3.442   0.018  0.0427  0.2034  0.1768
    1W        W41769   6.247  21.821   7.048 -0.0789  0.0364  0.2552
    1W        W41770  27.379  15.179   0.892 -0.0452 -0.0684 -0.0473
    1W        W41771  28.759   2.573   0.071 -0.0124  0.0439 -0.0009
    1W        W41772  29.509  13.421   6.157 -0.1846 -0.1464 -0.0906
    1W        W41773   7.329   6.922   9.396 -0.0729 -0.1572  0.1284
    1W        W41774   4.383  18.571   8.720 -0.0260  0.0486  0.0218
    1W        W41775  20.800  19.624   7.570  0.0841 -0.1190  0.0141
    1W        W41776  25.299  23.744   9.032 -0.1065  0.1044  0.3423
    1W        W41777   7.813  12.479   1.400  0.3387  0.0678  0.1502
    1W        W41778  16.339  15.603   8.165 -0.1261 -0.5322  0.0450
    1W        W41779  25.653  15.759   6.849 -0.2130  0.0387  0.1417
    1W        W41780  28.862  15.101   8.963  0.1617 -0.1905 -0.1985
    1W        W41781   9.039  23.132   1.904  0.3950 -0.3088 -0.1764
    1W        W41782   8.446  26.817   9.278  0.2249 -0.1515 -0.0553
    1W        W41783   7.189  12.939   9.187  0.0161  0.1804  0.2597
    1W        W41784   4.825   2.279   2.900 -0.1975 -0.2182 -0.0982
    1W        W41785   2.698   1.276   1.156  0.0050  0.3952 -0.1149
    1W        W41786  10.608   1.096   0.372 -0.1240 -0.2997 -0.1757
    1W        W41787   7.552   3.732   9.187 -0.2384 -0.3715  0.0156
    1W        W41788   7.098  25.290   2.897  0.0142  0.2163 -0.0343
    1W        W41789  14.188  22.146   8.616 -0.1335 -0.0549  0.0684
    1W        W41790  24.394   6.058   7.550  0.0901  0.3774  0.0205
    1W        W41791  23.847  27.780   6.766  0.2655  0.0598 -0.3226
    1W        W41792  19.759  17.289   8.792 -0.1723 -0.3788 -0.0629
    1W        W41793   3.347  29.619   1.328  0.0967 -0.1010 -0.0076
    1W        W41794   4.344  21.241   7.491 -0.2447  0.1392  0.0806
    1W        W41795  25.117   2.638   1.106  0.1448  0.0718 -0.3162
    1W        W41796  25.322   6.600   0.972  0.0962 -0.0031 -0.0495
    1W        W41797  22.448   5.867   7.635 -0.1294 -0.1609  0.1145
    1W        W41798  19.881  12.379   1.929 -0.1645 -0.2873 -0.0795
    1W        W41799   2.011  18.737   6.526 -0.0413  0.1149 -0.1434
    1W        W41800  19.771   3.875   0.877 -0.0818 -0.1177  0.0248
    1W        W41801  29.142   1.234   1.777  0.0949  0.0295  0.0772
    1W        W41802  18.387  24.157   8.060 -0.0106 -0.2118  0.0222
    1W        W41803  13.908  18.088   1.117  0.2139 -0.0016 -0.1198
    1W        W41804  15.359   9.174   0.978 -0.0282 -0.0951 -0.1955
    1W        W41805  24.919   0.585   2.732 -0.0190 -0.3266 -0.0291
    1W        W41806  29.168  29.072   8.872 -0.0934  0.0271 -0.0313
    1W        W41807   6.554  21.570   5.970  0.1319  0.0266 -0.0306
    1W        W41808  10.938   8.974   2.360 -0.2463 -0.2283  0.1490
    1W        W41809   9.198  17.517   0.390 -0.3515 -0.4692  0.0321
    1W        W41810  14.627  24.965   0.583  0.0361  0.4534  0.1608
    1W        W41811   5.109  25.789   0.915  0.0845  0.0539 -0.1357
    1W        W41812  12.573  21.204   8.710 -0.1898  0.3385 -0.1029
    1W        W41813  25.924   6.444   7.337 -0.1175  0.2532 -0.1987
    1W        W41814  26.637  15.281   0.136  0.1895 -0.1154 -0.0469
    1W        W41815   9.014  26.940   8.472  0.1386 -0.0977 -0.0389
    1W        W41816  14.961   9.971   7.089  0.0647  0.0874  0.1121
    1W        W41817  12.771   7.201   8.925  0.1783  0.0997 -0.2128
    1W        W41818   4.771  13.377   6.140 -0.0067  0.3330 -0.3496
    1W        W41819  14.390  27.467   7.478 -0.0743  0.0810 -0.0325
    1W        W41820  24.819  28.593   0.663 -0.3551  0.1870  0.0432
    1W        W41821  10.815  20.826   1.528 -0.1253 -0.0005 -0.0127
    1W        W41822  21.889  20.360   6.820  0.0604  0.1893  0.0429
    1W        W41823  20.813   9.317   1.571  0.3039 -0.1682 -0.2828
    1W        W41824  24.447  27.856   2.057 -0.2301  0.0909  0.1623
    1W        W41825  13.174  29.240   0.199  0.0102 -0.1688 -0.0521
    1W        W41826   4.266  15.340   6.781 -0.0702  0.1452 -0.0610
    1W        W41827   8.730  24.329   0.548  0.0350  0.2526  0.1386
    1W        W41828  12.086  29.375   2.322 -0.1681  0.1990 -0.0740
    1W        W41829  10.221   9.279   7.275 -0.2347  0.2047 -0.0619
    1W        W41830  20.259   6.717   1.439 -0.1539 -0.0319 -0.0858
    1W        W41831  14.528   5.832   2.668 -0.2472  0.0232  0.1801
    1W        W41832  25.365  14.034   8.471  0.2473  0.2753  0.0759
    1W        W41833  11.950  29.243   8.909  0.0925  0.1024 -0.4293
    1W        W41834   8.454  18.184   0.511 -0.0188  0.0912 -0.1571
    1W        W41835   6.111  28.779   1.894 -0.0030  0.1048  0.0303
    1W        W41836   2.971   0.337   9.309 -0.1862 -0.1534  0.1041
    1W        W41837   3.662  16.382   1.023  0.0200 -0.0455 -0.2341
    1W        W41838  24.372   4.588   8.198  0.1249  0.0784  0.2306
    1W        W41839  21.274   2.123   0.725 -0.4096  0.1568  0.2698
    1W        W41840  19.756  16.760   8.741  0.1111 -0.2137  0.0228
    1W        W41841  28.500   3.009   1.999  0.1936 -0.1889  0.0787
    1W        W41842  26.983   6.535   7.671  0.2436  0.2939 -0.2880
    1W        W41843  15.915  20.932   2.423 -0.0485  0.2811  0.1176
    1W        W41844  28.067   1.708   2.180 -0.2097 -0.0954  0.2121
    1W        W41845  15.780  26.957   2.397 -0.2691  0.0696 -0.3294
    1W        W41846  26.382  29.762   8.780 -0.1279 -0.1195  0.0104
    1W        W41847   5.983   1.500   2.436  0.3571 -0.3209 -0.2371
    1W        W41848  28.167   4.958   2.626  0.1150  0.1889  0.0989
    1W        W41849   5.032  27.382   8.489  0.1579 -0.0255  0.2109
    1W        W41850   0.580  24.355   1.599  0.0545  0.1142  0.1295
    1W        W41851   2.020  16.499   9.190 -0.1406  0.1624 -0.3169
    1W        W41852  28.154   7.197   0.371 -0.3204  0.0215 -0.1304
    1W        W41853   4.860   0.219   3.194 -0.0270 -0.3292  0.2794
    1W        W41854  14.842   7.441   7.954 -0.1539  0.1300  0.4823
    1W        W41855  10.254  28.136   6.849 -0.0211 -0.1369 -0.0616
    1W        W41856  12.723  27.508   2.400  0.0245  0.5437 -0.0144
    1W        W41857   6.244   1.745   7.771 -0.1623  0.1349  0.0138
    1W        W41858   3.790  24.358   5.847 -0.4687  0.0221  0.0259
    1W        W41859  22.455  25.402   3.145  0.2349  0.0163  0.0578
    1W        W41860  15.454  15.693   9.362  0.2449  0.0901 -0.3875
    1W        W41861  27.698  14.206   5.352 -0.0788 -0.0150 -0.0449
    1W        W41862   2.847  22.158   7.790  0.0374 -0.2225  0.3336
    1W        W41863   0.107   2.893   2.132  0.1192  0.1743  0.1030
    1W        W41864  20.983  11.505   8.687  0.0305 -0.2268  0.0877
    1W        W41865  20.517  19.217   6.753  0.0290  0.2738  0.1365
    1W        W41866  11.631  12.720   8.371  0.3873 -0.1206  0.0610
    1W        W41867   2.881   3.416   7.648 -0.3075  0.0004 -0.0560
    1W        W41868   8.508   5.575   1.553 -0.2896  0.1203 -0.0974
    1W        W41869   5.662   3.687   7.954 -0.2533 -0.0310  0.1178
    1W        W41870  22.791  18.478   8.218 -0.1518 -0.1029  0.2216
    1W        W41871  26.316  24.444   0.324 -0.0796 -0.0155  0.1945
    1W        W41872  12.841  23.729   8.356  0.0417 -0.0072 -0.1891
    1W        W41873  18.729  17.393   8.920  0.0903  0.1429  0.2069
    1W        W41874   7.949  27.578   8.735 -0.0097 -0.1193 -0.2597
    1W        W41875   6.540  15.479   9.225 -0.0162  0.2281  0.3010
    1W        W41876   5.099  25.568   8.285 -0.0418  0.0145  0.1981
    1W        W41877  10.617   0.670   3.115 -0.1416 -0.2993  0.0148
    1W        W41878   4.267  10.908   7.597 -0.1260  0.0380 -0.0528
    1W        W41879   9.422   4.512   7.764 -0.0609  0.0141  0.3798
    1W        W41880   9.563   6.099   8.941  0.1404  0.0828 -0.2186
    1W        W41881   4.136   9.537   7.940  0.0835  0.1735 -0.2143
    1W        W41882   7.090  17.908   7.140  0.1138 -0.0372  0.0897
    1W        W41883  12.654  24.836   9.297 -0.1671  0.1882  0.2497
    1W        W41884  28.255  17.615   1.363  0.1656 -0.1260  0.0281
    1W        W41885  12.092  27.151   9.030 -0.3720 -0.2396  0.2353
    1W        W41886   8.216  23.681   1.949  0.1183  0.2030 -0.1843
    1W        W41887   9.734  14.635   1.790  0.1388  0.2071  0.2006
    1W        W41888  29.354   9.331   1.912 -0.0827  0.1013 -0.0159
    1W        W41889  19.990  14.029   0.687 -0.0516 -0.2321 -0.0976
    1W        W41890  12.942  16.797   0.666 -0.1514  0.0940 -0.0948
    1W        W41891   2.235  29.364   7.656 -0.1830  0.0035 -0.0092
    1W        W41892   9.536   5.924   6.824 -0.1404 -0.0752 -0.0230
    1W        W41893  25.219  13.990   8.979 -0.0570  0.0121  0.2166
    1W        W41894   4.826  29.446   0.203  0.0139  0.3076  0.0040
    1W        W41895   0.897   4.898   9.249  0.0578  0.0998  0.0091
    1W        W41896  29.524   6.760   6.260  0.0946  0.0218 -0.0168
    1W        W41897  23.498  29.372   0.142  0.0776  0.1961  0.1403
    1W        W41898  13.279  10.505   0.502  0.0964 -0.3355  0.1375
    1W        W41899   4.145  27.738   5.960 -0.1841 -0.0731  0.1587
    1W        W41900   8.544  27.885   2.691  0.1213  0.0431  0.0210
    1W        W41901   1.716  18.930   9.425 -0.0355 -0.2470  0.3628
    1W        W41902  20.063   1.940   1.141 -0.2109  0.1294 -0.1707
    1W        W41903  14.287   8.500   0.705 -0.2822  0.0264 -0.2639
    1W        W41904  11.332  11.342   1.046  0.0099  0.0633  0.3324
    1W        W41905  16.441   3.147   8.931 -0.2611 -0.4647  0.0262
    1W        W41906   4.965   3.057   2.066  0.2251  0.1418  0.1591
    1W        W41907   3.404   2.041   1.483  0.1947  0.0972 -0.1083
    1W        W41908  28.890  19.692   2.207 -0.0298 -0.1425  0.0171
    1W        W41909   0.358  12.000   2.520  0.0701 -0.0813  0.1167
    1W        W41910  11.481   2.091   9.384 -0.4767 -0.2445 -0.3229
    1W        W41911  28.434   9.889   1.510  0.0971  0.0432  0.1247
    1W        W41912  21.765  29.414   3.165 -0.0744  0.0700  0.1048
    1W        W41913  24.740   4.091   7.063  0.0477 -0.3132  0.0594
    1W        W41914   7.190  22.272   6.905  0.3097 -0.1944  0.0354
    1W        W41915  19.150   3.963   8.672  0.0248  0.1223  0.0415
    1W        W41916   3.669  17.621   9.051 -0.2103 -0.0832  0.1629
    1W        W41917  20.556  16.683   6.321  0.0333 -0.1935 -0.0426
    1W        W41918  18.988  27.510   2.485 -0.4978 -0.0534  0.1245
    1W        W41919   5.261  24.879   2.143 -0.1499 -0.1496 -0.2179
    1W        W41920  10.062   7.908   2.885  0.0669  0.1245  0.1560
    1W        W41921  19.624  27.500   7.697  0.2093  0.1083  0.0884
    1W        W41922  18.946   7.638   9.175  0.0829 -0.0061 -0.0198
    1W        W41923  27.445  22.991   0.251 -0.1904 -0.1651 -0.1450
    1W        W41924   3.087  26.668   8.203  0.2594  0.2129 -0.4621
    1W        W41925   3.806  11.097   0.763  0.2907  0.1044 -0.2880
    1W        W41926   1.481  13.131   6.830  0.1062  0.1679  0.1995
    1W        W41927  28.847   7.009   8.767 -0.0639 -0.1398 -0.2935
    1W        W41928   2.188   5.182   7.926  0.0726 -0.0743 -0.3032
    1W        W41929   3.486   1.285   0.841 -0.0547 -0.1356  0.0540
    1W        W41930   1.353   3.669   2.517  0.0119  0.0531 -0.0140
    1W        W41931  11.247  22.579   8.207  0.1324 -0.0197 -0.1234
    1W        W41932  14.687  28.300   9.245 -0.0423  0.1167 -0.0031
    1W        W41933   7.312   6.286   3.457 -0.2212 -0.2610 -0.4242
    1W        W41934  25.045   7.735   1.374 -0.4062 -0.0947 -0.0324
    1W        W41935  21.006  27.181   7.636 -0.1238 -0.0830 -0.2569
    1W        W41936  21.253  17.703   0.549  0.1472 -0.1415 -0.2292
    1W        W41937  18.453  22.306   8.564 -0.0349  0.0832 -0.0787
    1W        W41938   6.910  18.363   9.400 -0.1312  0.1535  0.2500
    1W        W41939  19.605  14.369   0.437 -0.3913  0.0054 -0.2467
    1W        W41940  11.111   6.836   7.604  0.1693  0.0908  0.1326
    1W        W41941  12.053   1.768   3.710 -0.0769 -0.1623  0.3224
    1W        W41942   5.955   9.658   8.219  0.3166  0.1189 -0.0860
    1W        W41943   5.220  12.245   0.752 -0.1453 -0.1355  0.1945
    1W        W41944  20.536  15.875   8.272  0.1225  0.0602 -0.1978
    1W        W41945  17.188   4.923   2.167 -0.0401  0.0645 -0.0137
    1W        W41946   1.236  24.713   8.202  0.0787 -0.0261  0.2640
    1W        W41947   4.366  19.936   5.577 -0.2865  0.2009 -0.0154
    1W        W41948   9.573  11.243   1.805 -0.0337 -0.1576 -0.4845
    1W        W41949  20.541  24.214   6.738  0.2323 -0.1075  0.1072
    1W        W41950  19.246  22.442   0.312  0.1308  0.0422 -0.0063
    1W        W41951  21.609   3.498   7.009 -0.0098  0.0639 -0.1531
    1W        W41952  27.293  25.722   0.963  0.1333 -0.2028 -0.0275
    1W        W41953  28.180  10.728   6.545  0.0508 -0.3076 -0.0082
    1W        W41954  18.260  25.658   2.965  0.1183 -0.2935  0.2843
    1W        W41955   3.727  25.280   1.612  0.0845  0.0381  0.0800
    1W        W41956  26.133  10.542   7.041 -0.0573  0.0524  0.1439
    1W        W41957   6.513  29.385   8.010  0.1509 -0.1349 -0.0836
    1W        W41958  13.029  12.933   1.931 -0.2737  0.0775 -0.0626
    1W        W41959  27.231  16.769   6.443  0.4077 -0.0317  0.1658
    1W        W41960  26.022  24.957   1.703  0.0866  0.0234  0.2151
    1W        W41961   4.013  16.842   8.672  0.1406 -0.2823 -0.0646
    1W        W41962  26.914  13.963   0.949  0.1378 -0.1882 -0.2513
    1W        W41963  16.092  25.333   2.116  0.1562  0.1268  0.0386
    1W        W41964   5.712  27.064   2.133  0.3132  0.2414  0.3129
    1W        W41965  10.423  21.238   7.091  0.0323  0.0633 -0.2227
    1W        W41966  19.092   2.431   7.839 -0.1549  0.0138 -0.0695
    1W        W41967  29.449  25.821   1.359  0.1056 -0.0065 -0.0169
    1W        W41968  23.692   7.513   9.331  0.0946 -0.0096  0.3579
    1W        W41969  24.093  12.522   0.991 -0.0224  0.0215 -0.1350
    1W        W41970   7.183  19.374   1.948  0.2101 -0.1748 -0.1018
    1W        W41971  25.834   8.932   8.252 -0.4657  0.0993  0.3165
    1W        W41972   9.449   8.275   1.449 -0.2288  0.2863  0.1019
    1W        W41973  27.797   2.714   6.308  0.1194  0.0233  0.0190
    1W        W41974  25.005  13.400   1.533  0.5589 -0.0332  0.1003
    1W        W41975  22.852  19.061   8.171 -0.1532  0.1154 -0.0649
    1W        W41976  27.515  25.348   2.268 -0.1241  0.2515 -0.2099
    1W        W41977  17.036   6.129   9.188  0.2594 -0.0581  0.0252
    1W        W41978  14.723  16.169   1.875 -0.1349 -0.0290  0.2179
    1W        W41979  20.414  23.346   7.087  0.0800 -0.1714 -0.0544
    1W        W41980   3.646  22.670   1.399 -0.1933 -0.1738  0.1392
    1W        W41981  11.549  13.718   9.361  0.1946 -0.0231 -0.1950
    1W        W41982  20.398   8.883   9.444  0.0033 -0.1336 -0.0934
    1W        W41983   8.861   7.821   2.325 -0.0839 -0.1220  0.1280
    1W        W41984  27.986  19.402   2.160  0.0947  0.1593 -0.1714
    1W        W41985   6.827  14.340   0.700 -0.0488 -0.1111  0.2661
    1W        W41986  25.557  10.338   9.117  0.1027  0.0426  0.0296
    1W        W41987   8.679   7.479   9.372 -0.0011  0.2092  0.1868
    1W        W41988  15.483  23.240   0.475 -0.0314  0.1613 -0.1343
    1W        W41989  26.022   6.995   8.276 -0.3277  0.0398 -0.3161
    1W        W41990   4.106   3.971   6.683 -0.3014  0.0199  0.0275
    1W        W41991  18.754   7.016   0.853 -0.3353 -0.0833  0.1982
    1W        W41992   4.520   7.618   0.275  0.2021  0.3485 -0.1373
    1W        W41993   4.350   1.554   8.648  0.0097 -0.3367  0.1128
    1W        W41994  14.493   9.926   1.428 -0.1526  0.1070  0.0356
    1W        W41995  15.567   7.535   9.244  0.0863 -0.1352 -0.0125
    1W        W41996  25.793  22.972   6.809  0.0424  0.0330  0.0034
    1W        W41997  17.167  26.002   0.939  0.0531  0.1454  0.0087
    1W        W41998  25.891   8.062   7.040 -0.1207 -0.3971 -0.1424
    1W        W41999  20.157  23.945   8.620  0.2442  0.2347 -0.2772
    1W        W42000  11.834  12.140   0.894  0.1876 -0.3633  0.0329
    1W        W42001  16.090  28.563   2.856 -0.0733 -0.1017 -0.2725
    1W        W42002   7.270  18.348   8.345  0.1849 -0.0817 -0.1169
    1W        W42003  24.124   0.820   0.711 -0.1966  0.0172  0.0927
    1W        W42004  15.091   6.315   9.437 -0.4481  0.2029 -0.1148
    1W        W42005  22.641  20.516   1.271  0.1927  0.1298 -0.3993
    1W        W42006  11.001   1.373   1.326 -0.1227  0.2010 -0.2581
    1W        W42007  19.731   6.669   7.944  0.1756 -0.0913  0.3675
    1W        W42008  14.743   6.503   1.759  0.0829  0.1895 -0.2835
    1W        W42009  28.619  24.841   0.771  0.0528  0.2038  0.1366
    1W        W42010   9.370  24.467   2.090  0.0702 -0.2048 -0.0534
    1W        W42011  19.153   8.723   0.221 -0.3977 -0.2747  0.0905
    1W        W42012   8.729   9.280   3.088  0.0406 -0.1932 -0.1446
    1W        W42013  24.997   6.781   0.657 -0.0264  0.1722 -0.0642
    1W        W42014  23.270  25.873   1.811  0.1060 -0.0980  0.4815
    1W        W42015  23.327  27.652   8.894 -0.3133 -0.2980 -0.1282
    1W        W42016  24.665  21.317   3.000 -0.0603 -0.2651  0.3238
    1W        W42017  25.617  18.390   8.308 -0.1060  0.0609  0.0233
    1W        W42018  20.687  18.066   0.021 -0.1363 -0.1428 -0.2070
    1W        W42019  27.881  28.638   8.167  0.0028  0.3232 -0.2982
    1W        W42020  19.376  21.602   0.340  0.3289 -0.1438  0.0613
    1W        W42021  22.053  24.088   8.550 -0.3322  0.3650 -0.1752
    1W        W42022  28.986   7.624   2.003 -0.1451  0.2526  0.1553
    1W        W42023  20.482   7.801   8.288 -0.0016  0.0593 -0.0122
    1W        W42024   4.560   9.145   7.436  0.2144  0.2025 -0.0652
    1W        W42025  21.740   0.681   0.879  0.1136  0.4655 -0.1668
    1W        W42026  17.551  12.171   6.837  0.4224 -0.4697  0.1797
    1W        W42027   7.229   1.125   8.857  0.0464  0.0119  0.1322
    1W        W42028  21.590  23.023   9.321  0.2164  0.0569  0.1253
    1W        W42029  11.549  18.641   9.091 -0.1784  0.1836  0.2780
    1W        W42030   0.018  18.194   0.734 -0.2954 -0.2196  0.2703
    1W        W42031  14.831   9.033   7.669  0.0220 -0.1306 -0.1356
    1W        W42032  13.069  12.743   7.753 -0.1273 -0.0808 -0.0299
    1W        W42033  24.085  13.688   6.869  0.1214 -0.0716  0.1515
    1W        W42034  21.728   6.114   2.358 -0.0096  0.0740  0.2372
    1W        W42035  23.660   5.065   7.856 -0.1945 -0.2961  0.2343
    1W        W42036  15.678  17.376   0.324 -0.1507 -0.4289  0.1295
    1W        W42037  28.427  29.245   7.439 -0.0309  0.1700 -0.1737
    1W        W42038  25.629   9.000   7.760 -0.2364  0.0284 -0.1297
    1W        W42039  13.792  27.346   9.213  0.0511 -0.0056  0.1967
    1W        W42040  29.484  11.830   0.521  0.1841  0.0369  0.1731
    1W        W42041  15.873  16.475   2.396  0.0209 -0.0309  0.1707
    1W        W42042   5.507  18.067   0.847 -0.1209  0.0689  0.3095
    1W        W42043   7.633  27.764   7.833  0.1521  0.1785 -0.3045
    1W        W42044   7.510  16.193   7.529 -0.2404  0.0163  0.2364
    1W        W42045  11.265  25.524   2.451  0.2720  0.2297  0.1894
    1W        W42046  22.824  27.574   8.758  0.0095 -0.3412  0.2885
    1W        W42047   1.805   5.659   2.051  0.0827 -0.1318  0.1692
    1W        W42048  12.566   8.311   2.276  0.0907 -0.0507  0.0602
    1W        W42049   6.337  13.462   6.636  0.0077  0.0965 -0.2336
    1W        W42050   1.307   7.139   1.794 -0.1700 -0.0884  0.0677
    1W        W42051  29.011  22.572   8.430  0.1510 -0.0278 -0.1027
    1W        W42052  20.539  11.101   9.443  0.5483  0.0436  0.0375
    1W        W42053  23.595  23.146   9.105 -0.2159 -0.2353 -0.0479
    1W        W42054  24.774  28.623   7.775 -0.2474  0.1345 -0.1571
    1W        W42055  23.405  17.988   1.332  0.1442 -0.1150 -0.0040
    1W        W42056  22.464  18.639   7.826 -0.0991  0.2117  0.0823
    1W        W42057  17.127  10.409   0.985  0.0929 -0.0235  0.3902
    1W        W42058  27.871  11.945   7.148  0.1004  0.0933 -0.1253
    1W        W42059   8.247  16.111   6.812  0.0620 -0.1837 -0.1877
    1W        W42060  28.041  22.148   1.017 -0.1972  0.3952  0.0391
    1W        W42061  21.485   6.686   8.517  0.1441  0.0605 -0.1090
    1W        W42062   1.561  14.549   0.890  0.3428  0.0679  0.4126
    1W        W42063  15.519  22.542   6.292 -0.1252 -0.1459  0.1128
    1W        W42064   3.354  14.788   1.489 -0.1635  0.2496 -0.1760
    1W        W42065   7.001  25.536   1.271  0.0835  0.0016  0.2438
    1W        W42066   9.236  14.659   1.734 -0.3003 -0.0879  0.1964
    1W        W42067  10.142  20.005   9.337 -0.2059 -0.0178 -0.0429
    1W        W42068  21.157  28.906   2.314 -0.3524  0.1284  0.3653
    1W        W42069  20.753   0.695   3.737 -0.0998 -0.2005 -0.3518
    1W        W42070  20.066  29.521   7.740  0.2660  0.0627  0.1361
    1W        W42071   3.130  24.513   1.243 -0.0142  0.3617 -0.0882
    1W        W42072  15.596   1.100   8.974 -0.1722  0.5079  0.0994
    1W        W42073   3.842  25.137   1.010  0.1850 -0.0255  0.1597
    1W        W42074  12.223  19.631   1.571 -0.1543 -0.1984  0.1588
    1W        W42075   4.780  17.355   5.547 -0.0926 -0.0765 -0.1892
    1W        W42076  24.950  23.042   1.334 -0.0655 -0.1620 -0.2609
    1W        W42077   3.111  23.094   9.416  0.1454  0.0833 -0.2394
    1W        W42078   7.599   5.009   7.643  0.0138  0.2926 -0.0340
    1W        W42079   1.192  24.523   5.977  0.3209 -0.0746 -0.0373
    1W        W42080   7.914  10.507   9.076 -0.1984 -0.1235 -0.2402
    1W        W42081  25.167   7.136   2.729  0.2168 -0.0659 -0.0622
    1W        W42082  28.185  25.521   7.434 -0.1149 -0.0513  0.1013
    1W        W42083  18.346  24.737   9.049  0.0217 -0.2640 -0.0586
    1W        W42084   3.949  21.376   6.220  0.2334 -0.1787 -0.2112
    1W        W42085   7.489  29.208   0.215 -0.2442  0.2821 -0.1902
    1W        W42086   2.882   7.885   9.200 -0.3584 -0.3113 -0.2951
    1W        W42087  11.394  25.747   7.493  0.1578 -0.1100  0.0380
    1W        W42088   9.796   1.763   0.203 -0.3829  0.0182 -0.0841
    1W        W42089   4.340   4.718   3.331  0.2524 -0.0857  0.0147
    1W        W42090   5.549   1.100   9.185 -0.0834 -0.0758 -0.2734
    1W        W42091  24.791   7.423   2.773  0.4211 -0.0905  0.1218
    1W        W42092  10.506   5.146   7.093 -0.1429 -0.1251 -0.0187
    1W        W42093   2.130  17.416   1.880  0.1077  0.0654  0.0412
    1W        W42094   0.092  21.275   7.683 -0.2259 -0.1780 -0.0251
    1W        W42095   5.220  13.308   8.412  0.0940 -0.0769  0.2349
    1W        W42096   5.378  15.780   0.296  0.2887 -0.0944 -0.3914
    1W        W42097  23.344  12.230   7.266  0.0902 -0.1318 -0.1073
    1W        W42098  22.975   7.868   2.319  0.0642 -0.1600  0.1066
    1W        W42099  19.281   6.329   2.041  0.1516 -0.0365  0.1663
    1W        W42100  21.414  21.828   0.431  0.1180 -0.1143 -0.0599
    1W        W42101  17.010  23.153   8.948  0.2346 -0.0913  0.1799
    1W        W42102  19.449   9.154   8.944 -0.0041  0.0010  0.0618
    1W        W42103   2.404  10.723   1.731  0.0527  0.2020 -0.0458
    1W        W42104  25.496  12.367   8.339  0.2803  0.0619 -0.0139
    1W        W42105  10.009  28.677   2.848 -0.0534  0.1737  0.2398
    1W        W42106   1.828   3.887   0.299 -0.2251  0.2025 -0.0363
    1W        W42107   3.311  10.657   1.328  0.1665 -0.1610 -0.0156
    1W        W42108  29.086   7.169   9.200  0.0609 -0.1012 -0.1320
    1W        W42109   4.751  23.225   7.599 -0.2419  0.0297 -0.0373
    1W        W42110  22.821   3.544   8.099 -0.0468  0.0621 -0.2238
    1W        W42111  26.978  13.918   6.200  0.0338 -0.1847  0.2056
    1W        W42112  13.426  11.301   1.120  0.2178 -0.2790  0.2248
    1W        W42113   6.678  19.564   0.606 -0.0335  0.1435  0.1505
    1W        W42114  16.693  10.526   1.871  0.1002  0.2629  0.1618
    1W        W42115   8.788  23.490   6.875 -0.1258  0.1483 -0.0398
    1W        W42116  21.879  18.916   7.673 -0.3828 -0.0818  0.1424
    1W        W42117   5.808  23.679   6.847 -0.0612  0.2319  0.0736
    1W        W42118  12.414  15.821   0.891  0.0509  0.2376  0.3227
    1W        W42119   4.830  23.117   8.256 -0.2648  0.1730 -0.0228
    1W        W42120  13.691   2.901   9.312 -0.2081 -0.0538 -0.0645
    1W        W42121  28.736  23.679   6.788 -0.1077  0.0986  0.1672
    1W        W42122  19.192  22.577   8.142  0.0124  0.2033 -0.0764
    1W        W42123  22.326   6.599   6.562  0.0095 -0.1152 -0.1032
    1W        W42124  20.169  11.732   8.774  0.2122  0.1770 -0.0880
    1W        W42125   9.599  24.710   5.763 -0.2661 -0.1151  0.0588
    1W        W42126   0.301  23.998   1.883 -0.0686  0.0189 -0.0967
    1W        W42127  16.242  18.065   0.054  0.1451 -0.0340 -0.0158
    1W        W42128  14.902  22.369   1.812 -0.2587  0.0118  0.0008
    1W        W42129   8.121  16.416   1.016  0.3476 -0.1778 -0.0778
    1W        W42130  28.908  24.272   0.058 -0.2356  0.3947 -0.1939
    1W        W42131  12.293   0.326   0.819  0.0400 -0.2445 -0.0254
    1W        W42132  16.436   0.907   7.596 -0.1126 -0.0918  0.0879
    1W        W42133  28.796  18.343   0.115 -0.2990 -0.1206 -0.1278
    1W        W42134  28.467  23.046   1.173 -0.1488  0.4399  0.4571
    1W        W42135  16.787   4.251   7.951 -0.0429 -0.2211 -0.3264
    1W        W42136  13.149  19.964   2.132 -0.0389  0.3415  0.0236
    1W        W42137   1.432  22.998   1.021 -0.1331  0.2738 -0.0802
    1W        W42138  21.180  25.495   7.437 -0.0107 -0.2934  0.1259
    1W        W42139  26.838   8.460   6.779  0.2292  0.1940  0.1744
    1W        W42140  12.107   7.074   3.611 -0.2182  0.2275 -0.0751
    1W        W42141   8.326  14.382   8.777  0.0273  0.0766  0.0607
    1W        W42142  12.275   1.722   0.058  0.1404 -0.0195 -0.0367
    1W        W42143   5.216   6.586   6.955 -0.1133 -0.0441 -0.1585
    1W        W42144  15.533  22.073   7.069 -0.0112 -0.1114 -0.1477
    1W        W42145  15.807  15.429   1.703  0.3039 -0.1817 -0.0547
    1W        W42146  25.946   7.121   7.476  0.0841  0.0345 -0.3605
    1W        W42147  23.407   7.304   6.410 -0.2871 -0.1725 -0.0713
    1W        W42148   5.795  13.379   7.529 -0.1601 -0.2438 -0.0159
    1W        W42149  19.848  14.877   8.052 -0.0037 -0.3150 -0.0684
    1W        W42150  27.152   8.568   0.370 -0.1172  0.0144  0.0546
    1W        W42151  28.703   1.139   2.709 -0.1008  0.3414 -0.1685
    1W        W42152   7.997  13.541   2.078  0.1134  0.2131 -0.0254
    1W        W42153   8.725  29.735   2.465 -0.2597 -0.0588 -0.3920
    1W        W42154  25.263   1.902   2.855  0.1613  0.1694 -0.0583
    1W        W42155   0.577  25.710   0.205 -0.3948  0.3056  0.1016
    1W        W42156   7.882   8.504   8.025 -0.0523  0.3222  0.1205
    1W        W42157  17.760  25.477   7.744  0.0807  0.2315 -0.1111
    1W        W42158   9.957  25.408   9.129 -0.3315 -0.1769 -0.1142
    1W        W42159  14.328  24.990   1.550  0.1442 -0.1117 -0.0830
    1W        W42160  25.235  23.973   7.035  0.2305  0.1135  0.0907
    1W        W42161  10.969  28.934   0.522 -0.0553  0.0336 -0.2657
    1W        W42162  26.309  26.028   0.824 -0.0379 -0.3986 -0.3936
    1W        W42163  20.048  21.994   7.250  0.1352  0.1128 -0.0690
    1W        W42164  28.583  27.788   8.975  0.5073 -0.1550  0.1451
    1W        W42165  21.283   9.907   6.734  0.0036  0.0259 -0.1327
    1W        W42166  13.364  23.064   7.001 -0.0529  0.1821 -0.1118
    1W        W42167   6.174  15.903   9.190  0.2618  0.0025 -0.0795
    1W        W42168  20.624  13.962   0.451 -0.0443 -0.0304 -0.0040
    1W        W42169  14.841   3.932   8.441 -0.0601 -0.1640  0.0902
    1W        W42170   8.465   3.429   9.179  0.0557 -0.0757 -0.3502
    1W        W42171  12.642  25.797   1.957 -0.3068  0.0189  0.1721
    1W        W42172   8.547  24.406   2.538  0.0272  0.0205 -0.0112
    1W        W42173  13.341   4.685   8.667  0.3394  0.5010 -0.1047
    1W        W42174   2.755  11.042   9.064  0.0090 -0.0041 -0.1749
    1W        W42175  25.824  21.995   7.474 -0.2965  0.0270 -0.0773
    1W        W42176  17.652  23.230   0.735 -0.0968  0.0004 -0.1322
    1W        W42177  12.080   2.531   0.320 -0.0152  0.3766  0.0518
    1W        W42178  23.459  19.918   0.948  0.2578 -0.1738 -0.0875
    1W        W42179  28.822  11.700   7.322  0.0288 -0.2371 -0.2465
    1W        W42180  21.399   5.302   8.551  0.1467 -0.2085  0.2160
    1W        W42181  25.504  22.552   8.150 -0.1831  0.1611  0.0502
    1W        W42182  29.798  11.072   8.073  0.1114 -0.0688  0.0957
    1W        W42183  16.547   3.323   7.509  0.1324 -0.2104 -0.1362
    1W        W42184  29.384  20.006   0.604 -0.0370  0.4490 -0.0338
    1W        W42185   2.922   7.412   2.910 -0.1284 -0.3447 -0.0364
    1W        W42186  23.035  15.576   0.736 -0.1388  0.0189  0.0355
    1W        W42187  19.490  21.584   8.431  0.1660 -0.1632 -0.0579
    1W        W42188  25.603  26.329   1.836  0.1115 -0.0035  0.1170
    1W        W42189  16.575  28.253   8.673  0.1022 -0.2358 -0.0781
    1W        W42190  20.551  16.388   8.442 -0.1339  0.1467 -0.1414
    1W        W42191  18.203  25.417   1.338  0.1100  0.1239  0.0499
    1W        W42192  28.705   2.239   7.041 -0.1688  0.1824 -0.0188
    1W        W42193  24.246  26.592   9.403 -0.2474 -0.2019  0.3053
    1W        W42194   0.970  22.181   0.069 -0.0010 -0.0044  0.2091
    1W        W42195  16.101   7.840   7.911  0.0052  0.0361  0.2280
    1W        W42196  19.781  13.348   8.051  0.0776  0.0364  0.1551
    1W        W42197   2.445  11.399   0.544 -0.1190  0.1866  0.0885
    1W        W42198   2.992  24.618   8.402  0.0460 -0.1483  0.1021
    1W        W42199   3.790  19.179   8.146  0.0570  0.1629  0.0904
    1W        W42200   7.624  12.089   8.867 -0.1097 -0.0177 -0.1610
    1W        W42201  24.800  15.693   9.281  0.2081  0.1568  0.0062
    1W        W42202   4.273  25.810   7.159 -0.0249  0.0418  0.0766
    1W        W42203  28.060   4.456   2.630 -0.1562  0.0864 -0.0500
    1W        W42204  14.859  15.264   7.412 -0.0813 -0.0638  0.0530
    1W        W42205   0.530  28.211   7.041 -0.0104 -0.0153  0.2599
    1W        W42206   1.446  17.077   0.662  0.1553 -0.1311  0.0080
    1W        W42207  19.343  16.932   8.430  0.1778  0.1363  0.0769
    1W        W42208   2.836  24.158   8.479  0.1933  0.0194 -0.0374
    1W        W42209  24.596  14.876   0.015 -0.2958 -0.2675 -0.5032
    1W        W42210  18.971   4.965   2.304  0.0746  0.0908  0.4143
    1W        W42211  25.479  22.553   7.637 -0.0253  0.2188 -0.2822
    1W        W42212  18.386  24.595   1.083  0.0229 -0.0368  0.0983
    1W        W42213  23.324  17.644   8.099 -0.1479 -0.1324 -0.0918
    1W        W42214   6.996   5.022   2.538 -0.1301  0.0987 -0.0731
    1W        W42215   7.306   7.325   0.477  0.1844 -0.2306  0.4235
    1W        W42216   6.784  15.148   7.429  0.2570 -0.0159  0.2989
    1W        W42217   9.688  28.902   3.168  0.2664  0.0459  0.2325
    1W        W42218   1.946  14.162   1.633 -0.3345 -0.0442 -0.1783
    1W        W42219  21.955  17.494   2.378  0.1406 -0.3669  0.2170
    1W        W42220  23.964  14.564   8.995  0.3664  0.1580 -0.0693
    1W        W42221  24.114   5.775   7.916  0.0771  0.1672 -0.0537
    1W        W42222   6.317   1.387   3.737 -0.1763 -0.0432  0.1052
    1W        W42223  16.387  20.639   1.454 -0.0856  0.3219 -0.0526
    1W        W42224   3.947  14.643   1.772 -0.1764  0.4192 -0.2054
    1W        W42225  27.234  23.670   6.913 -0.0038  0.4911  0.1968
    1W        W42226   7.452  10.493   0.082 -0.2730  0.1866 -0.0763
    1W        W42227  27.967   7.728   0.225  0.0451 -0.1724  0.3859
    1W        W42228  25.554   6.158   1.058 -0.1095 -0.3939 -0.0505
    1W        W42229   1.398  10.720   8.896 -0.1350 -0.1396 -0.0892
    1W        W42230  12.084  27.555   9.295  0.1246  0.1409  0.1203
    1W        W42231  15.745   4.802   9.370 -0.0451  0.1444 -0.3853
    1W        W42232   1.993   3.098   2.937 -0.3076  0.2433  0.1290
    1W        W42233  27.397  17.602   8.047 -0.2096 -0.1419  0.1597
    1W        W42234  15.173  17.040   1.217 -0.0901 -0.2410 -0.0275
    1W        W42235   9.068  24.679   8.272  0.1909 -0.0785 -0.2871
    1W        W42236   8.622   8.226   2.020 -0.1081 -0.3507 -0.2291
    1W        W42237   0.929  19.544   8.834 -0.0887  0.0900  0.0305
    1W        W42238  25.749  20.227   9.453  0.0084  0.0363  0.1333
    1W        W42239  23.519  11.720   2.021 -0.1424  0.1807 -0.1723
    1W        W42240  23.733   0.504   0.865  0.0816 -0.0075 -0.1530
    1W        W42241  28.569  26.341   6.615 -0.3424 -0.1549  0.2159
    1W        W42242  21.414  20.424   1.508 -0.3973 -0.2192 -0.0031
    1W        W42243  20.784  19.702   8.225  0.2124  0.0545 -0.0849
    1W        W42244   2.504  15.002   1.651 -0.0348 -0.1054 -0.2750
    1W        W42245   7.192  11.562   1.251 -0.0065 -0.0414  0.3017
    1W        W42246  28.994  16.632   1.433 -0.1521  0.0536 -0.0158
    1W        W42247   2.278   0.365   2.972  0.3079 -0.2153  0.0266
    1W        W42248  12.826  27.561   6.517  0.1516 -0.1969  0.2955
    1W        W42249   4.761  14.553   1.803 -0.0152  0.3303  0.2650
    1W        W42250  22.281  19.238   1.213  0.0715  0.0485 -0.0589
    1W        W42251  12.411  13.996   0.190 -0.0636 -0.0073  0.4841
    1W        W42252  15.008   4.634   1.335  0.1189  0.0461  0.0473
    1W        W42253   6.401   5.935   2.948 -0.1521 -0.2786  0.0163
    1W        W42254   5.159   8.248   3.455 -0.1067 -0.1016  0.2483
    1W        W42255  24.838   0.939   0.724  0.1768  0.0635  0.3516
    1W        W42256  29.049   0.760   1.532 -0.0220  0.0113  0.1761
    1W        W42257  10.789  12.785   1.768  0.3103  0.0285 -0.0118
    1W        W42258  12.350  10.593   2.415  0.1573  0.0223 -0.0447
    1W        W42259   9.004  12.513   1.034  0.1642  0.0589  0.2357
    1W        W42260  15.471  10.193   1.344 -0.0330 -0.1592 -0.1299
    1W        W42261  24.300  14.053   9.437 -0.1551 -0.0237  0.1406
    1W        W42262   5.241   8.627   1.370 -0.0431 -0.0898  0.0538
    1W        W42263   8.566   3.507   7.586  0.0193 -0.1387 -0.2113
    1W        W42264  22.316   9.637   2.326  0.0305  0.0957  0.3357
    1W        W42265   9.883   4.204   0.478 -0.1797 -0.1117 -0.1264
    1W        W42266   9.617  17.216   0.667  0.0513 -0.0813 -0.1488
    1W        W42267   6.813   5.175   3.193  0.2208  0.0665  0.0777
    1W        W42268   6.337  29.410   8.670 -0.1220 -0.0471 -0.0326
    1W        W42269   9.745  27.573   1.515  0.2699  0.0424 -0.0025
    1W        W42270  17.764  11.961   1.978 -0.0988 -0.0582 -0.0474
    1W        W42271  20.754   0.609   7.946 -0.3395 -0.2308  0.2918
    1W        W42272  16.463  29.125   2.621  0.0001  0.1326 -0.1507
    1W        W42273  21.694   0.013   7.787  0.0880 -0.2524 -0.0377
    1W        W42274   5.323  18.409   1.204  0.2687 -0.1534 -0.0509
    1W        W42275   9.005   0.435   1.663 -0.0537 -0.2687 -0.0128
    1W        W42276   3.870  13.166   6.436  0.1645  0.1177  0.1824
    1W        W42277  12.358  21.319   7.790 -0.0458  0.2268 -0.2377
    1W        W42278  19.517  27.290   6.680 -0.0986 -0.0113 -0.1059
    1W        W42279  19.829   1.208   2.687  0.1084 -0.2103  0.2149
    1W        W42280  16.516  28.617   2.344 -0.2071 -0.3915  0.0110
    1W        W42281  14.800   0.838   0.599  0.3677 -0.0237  0.0733
    1W        W42282   5.513   4.566   3.153 -0.0595  0.0575 -0.0742
    1W        W42283  29.300  10.049   6.471 -0.0254 -0.0484 -0.0153
    1W        W42284   3.896   8.535   8.462  0.0202 -0.0153  0.4606
    1W        W42285  26.919  11.201   6.568  0.0801  0.0030  0.5165
    1W        W42286  29.783   8.650   6.775  0.2738  0.0678 -0.0241
    1W        W42287  10.614   2.203   0.843  0.0759  0.0571  0.0893
    1W        W42288  28.872   7.018   1.391 -0.0398  0.0280 -0.2137
    1W        W42289  20.521  10.630   7.595 -0.1662 -0.1018  0.2376
    1W        W42290  22.592  20.954   7.715  0.0950  0.0437  0.0698
    1W        W42291  20.290  22.627   1.516  0.1770 -0.1383  0.0961
    1W        W42292  11.498   8.873   8.516  0.1684  0.1645  0.3378
    1W        W42293   9.433   7.017   0.622  0.2700  0.1209  0.0012
    1W        W42294  16.387   2.142   8.235  0.2082 -0.1332 -0.0981
    1W        W42295  11.856  24.865   7.387  0.0600 -0.1378 -0.0771
    1W        W42296   3.826  17.857   7.745 -0.1459  0.0960 -0.2582
    1W        W42297  19.561  17.833   1.490 -0.1444  0.0615 -0.2205
    1W        W42298  16.547   8.873   0.981 -0.0107  0.0167 -0.3681
    1W        W42299  14.596  20.189   7.029  0.1729  0.1277  0.1448
    1W        W42300  26.873   9.164   6.163 -0.1228  0.3437 -0.0510
    1W        W42301  18.009   6.365   6.566 -0.0843 -0.1067  0.2360
    1W        W42302  13.013  27.893   3.544 -0.0625 -0.0935 -0.0345
    1W        W42303  28.783  24.349   0.882 -0.0034 -0.0043 -0.0890
    1W        W42304  25.893   7.295   6.519 -0.1888  0.0312  0.0793
    1W        W42305  12.383  20.509   6.914  0.1487  0.0421  0.1825
    1W        W42306   4.529  23.476   7.947  0.0709  0.0884 -0.0987
    1W        W42307  26.599  15.615   7.576 -0.0014 -0.1933  0.0153
    1W        W42308   3.569  27.010   8.879 -0.3980  0.1526  0.2919
    1W        W42309  26.744   2.191   8.643  0.2273 -0.0669  0.1348
    1W        W42310   3.942  28.115   8.873 -0.0862  0.0619 -0.2108
    1W        W42311  13.136   0.921   8.094  0.2522  0.0013  0.0014
    1W        W42312  29.506  15.459   7.016 -0.0977 -0.1780 -0.4435
    1W        W42313  18.561   7.712   0.451 -0.1233 -0.0040 -0.0740
    1W        W42314  26.312   7.108   7.906 -0.0455 -0.0656  0.1422
    1W        W42315   2.875  16.513   1.291  0.0501  0.1001  0.0721
    1W        W42316   8.685  22.897   2.135 -0.0686 -0.2921 -0.0023
    1W        W42317  14.712   2.134   8.548  0.0830 -0.0444 -0.3075
    1W        W42318   7.456  25.289   7.439 -0.4028  0.2798 -0.0950
    1W        W42319   4.902   4.406   3.399  0.0186 -0.0760 -0.1407
    1W        W42320   8.797  13.236   1.785  0.0905  0.1210  0.0073
    1W        W42321   5.436  12.357   6.651 -0.0621 -0.0288 -0.1719
    1W        W42322   5.765  23.246   0.682  0.2901 -0.3104  0.0052
    1W        W42323  23.977  12.954   8.456 -0.0288 -0.0265 -0.1881
    1W        W42324   7.832  29.433   7.921 -0.0305  0.0061 -0.0332
    1W        W42325  19.485  15.180   0.546  0.1711  0.0338  0.1590
    1W        W42326  18.357   8.757   6.763  0.1907 -0.2490  0.0255
    1W        W42327  22.636   5.191   6.541  0.1963  0.1073 -0.0626
    1W        W42328   2.353   8.762   2.602  0.2531 -0.1623  0.1737
    1W        W42329  11.538  10.880   2.063 -0.3681 -0.0289  0.0516
    1W        W42330   6.961  24.663   1.733 -0.0485  0.1412 -0.2779
    1W        W42331  15.533  17.286   8.655 -0.0473 -0.2246  0.0828
    1W        W42332  12.583   2.399   9.166  0.2457 -0.3561 -0.3575
    1W        W42333  22.696  16.497   5.886 -0.1624  0.0791 -0.0044
    1W        W42334  27.524  20.873   8.205 -0.2638  0.1628 -0.2747
    1W        W42335   2.353   3.942   0.335 -0.1088 -0.0602  0.0809
    1W        W42336  20.391   3.385   6.966 -0.0226 -0.3301  0.2057
    1W        W42337  20.686  23.562   6.756 -0.1397  0.3578 -0.3886
    1W        W42338   3.069  14.132   8.428 -0.4090 -0.1803 -0.0923
    1W        W42339  16.136  19.438   7.367 -0.0019 -0.0501  0.1686
    1W        W42340  27.266  14.142   6.960  0.3900 -0.2148 -0.2576
    1W        W42341   2.411  19.965   6.969  0.0563  0.0053  0.1754
    1W        W42342  20.166  19.590   9.167  0.1129  0.1867 -0.2936
    1W        W42343  11.119   9.808   1.414 -0.1833  0.0985 -0.2427
    1W        W42344   5.334  22.399   6.661 -0.1788  0.1021 -0.0199
    1W        W42345  20.896  10.438   7.814 -0.1163 -0.3057  0.1058
    1W        W42346  12.888  11.259   2.772  0.4299 -0.0830 -0.0602
    1W        W42347  15.461  10.553   2.050  0.1687 -0.2818  0.1713
    1W        W42348  27.603   5.821   1.587 -0.1562  0.2333  0.2692
    1W        W42349  10.613   7.770   8.835  0.2854 -0.0652  0.0765
    1W        W42350  13.379  18.324   7.012  0.4636 -0.3994  0.1237
    1W        W42351   4.615  25.021   9.005 -0.2377  0.1872 -0.3336
    1W        W42352   4.136   7.980   0.258 -0.2754  0.3291  0.1631
    1W        W42353   5.173   2.660   0.248  0.2705  0.0657 -0.1123
    1W        W42354  24.781  11.728   8.143  0.0625  0.0019 -0.0659
    1W        W42355  19.475  13.955   9.069  0.0177 -0.1776 -0.0283
    1W        W42356   7.730  26.399   0.480  0.0718 -0.2616  0.0376
    1W        W42357  12.703  26.771   2.015 -0.2617  0.0300  0.0079
    1W        W42358   8.195   5.720   1.207 -0.0963 -0.0394  0.2540
    1W        W42359  24.593  11.655   1.286 -0.4001 -0.2651 -0.0200
    1W        W42360  17.599  25.200   3.333  0.1292  0.2147  0.2473
    1W        W42361  19.222  29.200   8.185 -0.2364 -0.0250 -0.0412
    1W        W42362  12.912  22.740   7.163  0.0406 -0.2942 -0.1207
    1W        W42363   4.799  24.875   5.656  0.1712  0.0612 -0.0255
    1W        W42364  27.351  13.214   6.810  0.2369 -0.0378  0.0214
    1W        W42365  19.522   8.200   1.254 -0.1380  0.1892 -0.2062
    1W        W42366   2.962  10.843   6.314 -0.0735 -0.0649 -0.1312
    1W        W42367   0.867  29.598   0.705  0.3914 -0.1457 -0.3237
    1W        W42368  21.482   1.561   9.271  0.2198  0.1915  0.0116
    1W        W42369  16.928   9.712   7.340  0.0201  0.3995 -0.2439
    1W        W42370  27.638   9.085   6.902  0.1952 -0.1344 -0.0125
    1W        W42371   1.950   8.372   1.252  0.2335 -0.0718 -0.1241
    1W        W42372  26.995  24.434   7.684  0.0203 -0.2351  0.0262
    1W        W42373  23.679   0.910   7.819 -0.0515 -0.1012  0.3470
    1W        W42374  26.882  24.384   1.805  0.1818  0.0503  0.1313
    1W        W42375   8.260  22.695   0.716 -0.0870 -0.1600 -0.2703
    1W        W42376   2.537  17.488   7.973  0.0412  0.0193  0.1241
    1W        W42377  19.812   1.719   6.591 -0.1247  0.2447  0.2037
    1W        W42378  26.322   6.453   6.991 -0.2490  0.3603 -0.1831
    1W        W42379  20.029   0.059   1.970  0.0667  0.1192 -0.0025
    1W        W42380  22.680  27.341   7.358 -0.0690 -0.0874  0.1023
    1W        W42381  22.071  25.655   8.257 -0.0240  0.2358 -0.0121
    1W        W42382   1.786   5.055   6.210 -0.1752 -0.0256  0.1305
    1W        W42383   0.508  23.709   7.459  0.3218 -0.0592 -0.0072
    1W        W42384   9.662  22.177   1.954 -0.1773  0.0007  0.0855
    1W        W42385  28.323  25.573   6.874 -0.1078  0.1995  0.1257
    1W        W42386   0.517  12.166   2.019 -0.0084 -0.0237  0.2404
    1W        W42387  18.708  23.661   0.465 -0.2261 -0.0269  0.0478
    1W        W42388   1.378  16.458   7.927  0.1388  0.2197 -0.4248
    1W        W42389  12.165  19.839   7.398 -0.0433  0.0426 -0.2316
    1W        W42390  15.263  22.916   6.980  0.0204  0.0293  0.2795
    1W        W42391  29.468   0.600   8.492  0.0053  0.2793  0.1832
    1W        W42392   1.781  24.813   8.914  0.1297  0.0564 -0.0702
    1W        W42393  25.724   5.428   1.391 -0.3357  0.2027 -0.0670
    1W        W42394  15.173  29.300   2.463 -0.0041  0.0485  0.1877
    1W        W42395  12.348  16.350   8.345 -0.0102  0.2760 -0.1188
    1W        W42396   9.953   0.822   8.140  0.2802 -0.0431 -0.2319
    1W        W42397  17.173   6.828   6.046  0.1083 -0.0937  0.0297
    1W        W42398  16.307  12.643   1.971 -0.0593  0.3734 -0.0072
    1W        W42399   4.432  27.266   8.527  0.0804  0.2191 -0.2302
    1W        W42400  17.084   9.030   9.174 -0.1472 -0.0616 -0.2107
    1W        W42401  10.077  14.908   7.635  0.0578  0.0932 -0.0084
    1W        W42402  12.092  20.517   0.860  0.0939  0.0343 -0.4375
    1W        W42403   9.367  26.177   8.354  0.0801  0.0526 -0.0991
    1W        W42404  25.028  21.351   0.320  0.3411  0.0282  0.0961
    1W        W42405   0.464  23.866   5.416 -0.1419  0.0314 -0.0090
    1W        W42406  27.964  28.088   0.624 -0.1000  0.2328 -0.1548
    1W        W42407   0.230   6.562   1.082 -0.0886  0.3380  0.3376
    1W        W42408   4.799  13.087   8.423 -0.2843 -0.0176  0.2065
    1W        W42409   2.851  29.654   2.452 -0.0784  0.1438 -0.3688
    1W        W42410   4.911   1.732   3.375  0.1246  0.3644 -0.1660
    1W        W42411   1.074   5.278   0.095  0.0221  0.0198  0.0366
    1W        W42412   5.801  10.419   0.788  0.1759 -0.1365  0.1906
    1W        W42413   9.197  28.656   3.123  0.3803 -0.2158  0.0273
    1W        W42414  14.888  10.896   7.228 -0.0655  0.1182  0.2506
    1W        W42415  27.265   4.123   2.340  0.1013 -0.2429 -0.2916
    1W        W42416  13.548  12.065   1.984 -0.1021  0.0504 -0.3168
    1W        W42417   9.658  20.244   2.025 -0.1486  0.0734  0.3471
    1W        W42418  22.974  26.686   8.886  0.0903  0.1501 -0.0120
    1W        W42419  17.098  13.638   9.453 -0.0892 -0.0406  0.2676
    1W        W42420  21.941   6.216   1.678 -0.2772  0.0670 -0.1823
    1W        W42421   2.119  11.269   0.173  0.1836 -0.1606 -0.0344
    1W        W42422   7.369   3.594   7.471 -0.1099  0.2481 -0.0076
    1W        W42423  15.354  21.179   0.514  0.1031 -0.0437 -0.1439
    1W        W42424  17.584  14.866   8.724  0.2351  0.0855  0.0302
    1W        W42425  15.944  25.543   8.031 -0.0409  0.1840 -0.2829
    1W        W42426  18.498  23.213   1.657 -0.1175 -0.1490  0.1021
    1W        W42427   1.324   2.184   8.712  0.2321  0.3878 -0.0407
    1W        W42428  17.680  25.749   0.323  0.1378 -0.3302 -0.0083
    1W        W42429  26.169  20.060   8.558 -0.4557 -0.0845  0.1262
    1W        W42430  29.137   3.393   6.903 -0.1034 -0.0684 -0.0993
    1W        W42431  22.208   3.006   0.715 -0.0690  0.0238 -0.3981
    1W        W42432  20.420  15.572   8.704 -0.0759  0.1009  0.1224
    1W        W42433  24.819   6.331   1.796  0.0687 -0.3805 -0.0918
    1W        W42434  21.739  24.138   8.139 -0.0672 -0.1943 -0.0087
    1W        W42435  10.318   8.290   0.017 -0.0953  0.2961 -0.0595
    1W        W42436  26.736  22.858   6.923 -0.2031 -0.3543  0.0782
    1W        W42437  28.092   8.079   7.031 -0.0029 -0.0009 -0.0975
    1W        W42438  15.006  15.015   2.373 -0.0552  0.1572  0.0418
    1W        W42439  13.514   4.582   7.709 -0.1474 -0.0744 -0.1678
    1W        W42440   5.282  23.771   6.691  0.1766  0.0778 -0.3006
    1W        W42441   2.297   3.758   8.395 -0.1426 -0.1406 -0.1672
    1W        W42442  11.859   1.153   8.911 -0.2436 -0.0537  0.1434
    1W        W42443  16.685   2.342   3.167  0.1549 -0.1127  0.0168
    1W        W42444  13.607  22.808   1.101 -0.1982 -0.3147 -0.0392
    1W        W42445  25.677   6.208   8.571  0.1171  0.0206 -0.0690
    1W        W42446  22.851  12.594   0.781 -0.1833 -0.0823 -0.1035
    1W        W42447  19.528  24.545   1.988 -0.2152 -0.0064  0.1117
    1W        W42448  16.286  15.417   8.841  0.0334 -0.0659 -0.2101
    1W        W42449   5.065  28.862   8.745  0.0752 -0.3118 -0.1437
    1W        W42450   6.290  15.048   8.937  0.1015 -0.0889  0.1882
    1W        W42451  15.381  10.151   1.833  0.0541 -0.2450 -0.0978
    1W        W42452   5.914  21.245   7.576  0.0691  0.0411  0.0677
    1W        W42453  24.785  15.646   1.550 -0.0972 -0.1318 -0.1097
    1W        W42454   2.285  13.603   1.826 -0.1374  0.0380  0.0033
    1W        W42455   3.710  18.308   8.141  0.1084 -0.2978  0.2756
    1W        W42456  19.150  24.924   3.582 -0.0726  0.0075  0.0807
    1W        W42457  29.459  25.089   7.605  0.2685 -0.1155  0.0158
    1W        W42458  26.035   6.570   2.945  0.2747 -0.5183  0.0565
    1W        W42459   7.995  17.043   0.192  0.1506 -0.0218  0.0679
    1W        W42460  24.794  12.909   1.914  0.2632 -0.1413  0.0605
    1W        W42461  11.984  17.750   1.097 -0.1338  0.1159  0.0513
    1W        W42462   5.930  17.076   1.559  0.3012 -0.3475  0.1418
    1W        W42463  28.071  14.444   8.133 -0.2347 -0.1369 -0.1508
    1W        W42464  21.013   0.332   2.478 -0.5126  0.0351  0.1321
    1W        W42465  26.244  23.211   6.844 -0.0175 -0.0305  0.0277
    1W        W42466  22.883   6.663   2.996  0.0866  0.1668 -0.0757
    1W        W42467   1.990  12.707   0.522  0.1645 -0.0246 -0.1066
    1W        W42468  29.725  12.439   6.486  0.0102  0.5211 -0.0916
    1W        W42469   7.224  26.533   8.148  0.4172 -0.0816 -0.1797
    1W        W42470  22.066  23.291   1.162 -0.0401  0.3008  0.2736
    1W        W42471  27.857  11.524   7.555  0.0044  0.1706 -0.0349
    1W        W42472  20.814  18.359   8.529  0.2357  0.0278 -0.0368
    1W        W42473  12.080  11.179   7.088 -0.1056  0.4297 -0.2096
    1W        W42474  21.470   5.872   0.025  0.0623 -0.1264 -0.2512
    1W        W42475  13.214  11.643   6.892 -0.1910 -0.1652 -0.0717
    1W        W42476  27.839   8.884   7.339 -0.0587 -0.1474  0.2174
    1W        W42477  16.310  22.464   1.287  0.1571  0.1188 -0.1349
    1W        W42478  25.542  16.127   8.332  0.3182  0.1762  0.1843
    1W        W42479  21.863  14.262   1.381  0.0499 -0.1327  0.0787
    1W        W42480  23.724  27.222   9.192 -0.1098  0.1974  0.1209
    1W        W42481   5.575   2.061   0.453  0.2764 -0.0688  0.0334
    1W        W42482  27.495  26.688   3.032  0.1947 -0.0810  0.0433
    1W        W42483  25.798  24.587   0.119 -0.0012 -0.3990  0.0951
    1W        W42484   0.879   2.863   0.835 -0.3798 -0.2827  0.2231
    1W        W42485  28.536  12.748   6.340 -0.0225  0.0326 -0.1970
    1W        W42486   5.596   7.992   2.435  0.0327 -0.0870 -0.0537
    1W        W42487   5.556  21.391   6.746 -0.1005 -0.3898  0.1644
    1W        W42488  11.503  18.268   7.386  0.3547  0.1903 -0.4066
    1W        W42489   8.909  24.684   1.705 -0.0592 -0.4640 -0.1442
    1W        W42490  12.462   3.779   1.643  0.1998 -0.0202  0.0496
    1W        W42491   0.180  24.681   8.193  0.0987 -0.0216 -0.0410
    1W        W42492  11.964  29.279   7.618 -0.0934 -0.0496  0.0298
    1W        W42493   9.559  18.825   0.123  0.2540  0.1475 -0.1647
    1W        W42494  25.640   9.459   1.811 -0.5531  0.0528 -0.0689
    1W        W42495   7.279  29.526   0.525 -0.0558 -0.2021 -0.0460
    1W        W42496  20.480  13.681   6.574 -0.2024  0.0679  0.2469
    1W        W42497  26.896  16.775   2.285  0.3343 -0.3220 -0.1361
    1W        W42498   1.356   4.674   8.961  0.2112 -0.1031 -0.1434
    1W        W42499  10.391   2.917   0.130 -0.0757 -0.0477  0.0309
    1W        W42500   0.917  12.328   6.647 -0.1794  0.1307  0.1162
    1W        W42501   5.872  28.500   2.454 -0.0211 -0.3723  0.1782
    1W        W42502  26.650  10.883   8.637 -0.1250  0.1443  0.0895
    1W        W42503  12.491  13.003   7.371  0.1094  0.4270  0.2177
    1W        W42504   1.957  20.087   7.258 -0.2278 -0.1176  0.2060
    1W        W42505  19.223  15.463   0.853  0.1812  0.0232 -0.4085
    1W        W42506  21.094   3.144   0.128 -0.2039 -0.0695 -0.2543
    1W        W42507   7.257  28.638   0.822 -0.0756  0.0643 -0.1617
    1W        W42508   5.810  22.101   0.536  0.1712 -0.0946  0.0770
    1W        W42509   0.291  15.078   0.897  0.3305  0.1318 -0.0183
    1W        W42510   7.902  29.325   1.420 -0.1088 -0.0974 -0.0488
    1W        W42511  26.598  25.445   7.075  0.1771 -0.1741  0.0424
    1W        W42512  27.142  24.439   8.161 -0.0138 -0.0880  0.0032
    1W        W42513  21.370  19.272   1.913 -0.1055 -0.0455 -0.1703
    1W        W42514  18.345  28.300   7.178  0.0838  0.1419 -0.1530
    1W        W42515   5.859   1.336   8.680  0.3025  0.1009 -0.0725
    1W        W42516   3.154  14.156   7.092 -0.3034 -0.2468  0.1235
    1W        W42517  24.103   9.718   8.977 -0.0323 -0.2794 -0.0854
    1W        W42518   4.914  11.393   9.151  0.2740 -0.0817 -0.2546
    1W        W42519   5.989  13.912   0.745 -0.0523 -0.2257  0.0317
    1W        W42520   6.197  23.821   6.581 -0.2650  0.1086  0.2125
    1W        W42521  23.526   9.399   0.670 -0.0413 -0.0837 -0.0188
    1W        W42522   4.106  20.818   7.476  0.0970  0.0466  0.0283
    1W        W42523  16.328  24.817   3.556 -0.3298  0.1203 -0.1858
    1W        W42524   0.866  22.190   6.382  0.0225 -0.2208 -0.0679
    1W        W42525   6.268  29.800   0.718  0.1661 -0.1041 -0.1831
    1W        W42526  10.139   4.600   1.260  0.1175  0.1834  0.0714
    1W        W42527  14.739  17.021   7.408  0.2685  0.3223  0.0252
    1W        W42528  23.057  15.630   8.482 -0.1212 -0.0128  0.0701
    1W        W42529  15.617  20.529   0.487 -0.2502 -0.0851 -0.1568
    1W        W42530  15.156  18.219   8.886 -0.2528 -0.2821 -0.2298
    1W        W42531   0.480   5.999   7.178  0.0451 -0.0520  0.1334
    1W        W42532  27.697  13.673   7.582 -0.1080  0.2898 -0.0156
    1W        W42533  25.413   5.340   8.160 -0.2620  0.3303  0.0023
    1W        W42534  23.521  22.498   2.013 -0.0079 -0.1780  0.2173
    1W        W42535  10.624   3.481   0.577  0.2923  0.2107 -0.1914
    1W        W42536   7.932  15.952   1.186 -0.0483 -0.1516 -0.2788
    1W        W42537   4.984  13.015   8.924  0.2906  0.1265  0.0340
    1W        W42538   1.127   6.343   2.028  0.0862  0.1247  0.1348
    1W        W42539   1.160   6.418   8.957 -0.2893 -0.2225  0.0243
    1W        W42540   1.525  13.956   1.774 -0.0434  0.2369  0.2913
    1W        W42541   9.213   4.466   2.633 -0.2596  0.1168  0.0089
    1W        W42542   0.223   1.896   3.686 -0.1019 -0.2058 -0.1502
    1W        W42543  20.224  29.446   0.805  0.3680  0.0969  0.3286
    1W        W42544   6.046  27.192   2.562  0.0010  0.0779  0.1215
    1W        W42545  14.474   9.844   8.126 -0.1744 -0.1455  0.2685
    1W        W42546  17.260  22.797   1.303  0.1005 -0.0725  0.0180
    1W        W42547  21.547   9.532   1.021 -0.2443 -0.0048 -0.0319
    1W        W42548   1.151  26.889   7.919  0.0089 -0.1005  0.1857
    1W        W42549   7.197  25.781   7.358  0.0941 -0.1247 -0.1309
    1W        W42550   9.821  11.117   0.387 -0.1085  0.4768 -0.2051
    1W        W42551  18.112  11.355   0.449  0.1005  0.0941 -0.0311
    1W        W42552   9.322  11.718   1.745  0.0665  0.1970 -0.1568
    1W        W42553  21.035  13.629   8.408 -0.1682 -0.0932 -0.0616
    1W        W42554   1.920  26.708   6.931 -0.0889 -0.0809  0.0469
    1W        W42555  17.673   4.262   0.620  0.4137  0.0522 -0.1121
    1W        W42556  13.790   3.249   2.194 -0.0364 -0.0299 -0.0915
    1W        W42557  19.946   2.946   1.112  0.2702 -0.0841  0.3016
    1W        W42558   8.049  12.506   8.027  0.2425 -0.1232  0.0489
    1W        W42559  29.729   7.212   8.954  0.1555 -0.0488  0.0915
    1W        W42560  28.173  22.598   9.260 -0.0609 -0.1467  0.3008
    1W        W42561  23.610   9.955   0.445  0.3141 -0.4473  0.2839
    1W        W42562  19.326  25.443   0.968  0.0359 -0.8077  0.0756
    1W        W42563  27.978  22.847   8.389  0.2120  0.1931  0.0971
    1W        W42564  18.265   6.279   2.164 -0.0988  0.0136  0.0265
    1W        W42565   8.467  23.759   2.600  0.1612  0.3202  0.2444
    1W        W42566  18.211   9.582   6.662 -0.2064 -0.2105  0.0547
    1W        W42567   0.131  12.925   2.411  0.1078 -0.1726  0.2390
    1W        W42568  26.510  14.299   7.690 -0.1693  0.0763 -0.0744
    1W        W42569   8.129   4.256   7.676  0.1585 -0.0843 -0.2253
    1W        W42570  18.766  25.563   3.100  0.4234 -0.3699 -0.1474
    1W        W42571  16.109   3.410   6.737  0.0014 -0.2265  0.0479
    1W        W42572   2.898  16.138   8.884 -0.0580  0.1428  0.0002
    1W        W42573   8.883  20.224   7.544 -0.0502  0.0038 -0.0553
    1W        W42574  15.706  24.612   2.518 -0.1381 -0.2001  0.0978
    1W        W42575  17.260   0.582   2.855 -0.1322 -0.3239  0.1893
    1W        W42576   3.759  13.626   7.269 -0.1741  0.1369  0.0389
    1W        W42577  11.628   5.302   2.606 -0.0033 -0.2078 -0.0133
    1W        W42578  13.860  17.747   7.568 -0.1550 -0.1877  0.0698
    1W        W42579  28.347   0.453   3.513 -0.1244  0.0980 -0.4455
    1W        W42580  15.391   8.998   0.477  0.0508 -0.1930 -0.1500
    1W        W42581   1.615   3.222   2.616 -0.2373  0.3743  0.0012
    1W        W42582  20.242  25.545   2.949 -0.2336  0.0442 -0.0371
    1W        W42583  12.087  29.197   1.868  0.0293  0.3212  0.1686
    1W        W42584  28.763  26.594   0.677 -0.0827 -0.1273  0.0457
    1W        W42585  27.754   8.881   8.321 -0.3303 -0.1343  0.1223
    1W        W42586  12.071  20.803   8.435  0.1160 -0.4166  0.1688
    1W        W42587   6.057   5.358   7.803  0.1968  0.1040  0.1247
    1W        W42588  15.089   0.341   8.802 -0.4080 -0.0156 -0.2715
    1W        W42589   5.784  27.500   1.276 -0.1503 -0.0461 -0.0841
    1W        W42590  16.104  22.868   7.537 -0.1246 -0.0635  0.0607
    1W        W42591  11.242   5.793   7.539  0.0034 -0.1121  0.0881
    1W        W42592   6.475  15.117   2.235 -0.2054  0.1564  0.1077
    1W        W42593  24.477   1.675   8.188 -0.0663  0.3049  0.0138
    1W        W42594   1.944  27.922   6.251 -0.0906  0.0195  0.0812
    1W        W42595   9.208   6.018   1.533  0.1293  0.1961  0.0197
    1W        W42596  28.826   4.290   2.324 -0.0442 -0.2711 -0.1223
    1W        W42597  19.327  29.194   7.667 -0.1341  0.3109  0.1688
    1W        W42598  14.761  29.621   6.284  0.0467  0.1206  0.2528
    1W        W42599   1.093  17.689   1.819  0.1087 -0.0151 -0.0505
    1W        W42600  15.767  27.698   7.713  0.0846  0.2756  0.0707
    1W        W42601  23.622  21.846   8.648  0.3221 -0.2453  0.1504
    1W        W42602  18.313   1.324   0.410 -0.1008 -0.0492 -0.1199
    1W        W42603  26.976   9.215   7.635 -0.0087 -0.0568 -0.0185
    1W        W42604  18.605  20.622   1.801 -0.1489  0.1612 -0.0919
    1W        W42605  20.420   5.191   0.440  0.1141 -0.1687 -0.2129
    1W        W42606  13.448  14.209   7.051  0.1616  0.1063  0.1456
    1W        W42607   3.372   1.415   8.203  0.0061  0.0621 -0.2325
    1W        W42608  19.687   6.629   7.162  0.0532  0.1876  0.1018
    1W        W42609  16.784   0.344   1.895  0.2849  0.2637 -0.0895
    1W        W42610   7.208  28.038   9.152  0.0274  0.2708  0.0574
    1W        W42611   7.940  20.336   0.558  0.2840 -0.0128 -0.0995
    1W        W42612   7.510  19.974   0.397  0.2136 -0.0268  0.0757
    1W        W42613   6.423  21.124   9.337  0.4459 -0.0463  0.0044
    1W        W42614  12.138   6.718   2.692 -0.0351  0.2165 -0.0168
    1W        W42615  16.290  20.565   8.898 -0.1044 -0.0375 -0.0170
    1W        W42616  16.553  19.269   1.821 -0.1973 -0.0451  0.0371
    1W        W42617  19.490  11.361   6.691 -0.0747  0.0058 -0.2837
    1W        W42618  12.874   7.880   1.688 -0.2485 -0.0404 -0.0081
    1W        W42619   6.606  18.673   7.691 -0.0250 -0.0838  0.0329
    1W        W42620   7.327   0.136   0.810  0.1537  0.0459 -0.0906
    1W        W42621  12.813   3.524   0.188  0.1317 -0.1854  0.2813
    1W        W42622   7.930  15.701   6.885  0.2601 -0.0724  0.0667
    1W        W42623  24.380   1.317   3.600 -0.4869 -0.2013  0.0361
    1W        W42624  29.635   2.334   6.245  0.1829  0.0292 -0.0978
    1W        W42625  20.499  15.411   6.866 -0.0125 -0.0700  0.2143
    1W        W42626  24.611  23.061   0.611  0.0413 -0.1130  0.0034
    1W        W42627  29.403  20.528   9.415 -0.0858 -0.1403  0.3875
    1W        W42628   0.672  12.691   5.982  0.1270 -0.0864  0.5165
    1W        W42629   3.648  26.811   0.198  0.1174 -0.0426  0.2908
    1W        W42630  27.622   9.808   2.476  0.2604 -0.1448  0.0701
    1W        W42631  27.259   6.666   0.394 -0.1613 -0.0067 -0.2201
    1W        W42632  20.963  28.075   0.984 -0.0660  0.3121 -0.0149
    1W        W42633  24.673  17.485   7.507  0.2564  0.0498  0.2576
    1W        W42634  16.537  10.332   0.494  0.1083 -0.0942  0.2871
    1W        W42635  23.968  23.416   9.423  0.0054 -0.1936 -0.0912
    1W        W42636  29.593  22.217   7.617  0.0037 -0.0143  0.1231
    1W        W42637   3.620   2.026   7.457  0.1873  0.0344  0.2095
    1W        W42638  11.283  18.628   1.653 -0.2975 -0.1168  0.0761
    1W        W42639   9.973  12.293   1.949  0.1173  0.2667 -0.2258
    1W        W42640   1.737   0.831   0.818  0.4545  0.0868  0.0987
    1W        W42641   3.916  13.442   6.839 -0.1379 -0.2559 -0.3648
    1W        W42642  11.901  18.278   6.928  0.3072  0.0043 -0.1002
    1W        W42643   2.683  20.573   2.275 -0.0080 -0.3980  0.1167
    1W        W42644  23.960  10.516   6.699 -0.1719  0.3626 -0.0119
    1W        W42645   5.415   1.482   1.044  0.2333 -0.0545  0.1867
    1W        W42646   3.818   1.988   7.949  0.0125  0.1646  0.1222
    1W        W42647  16.762   7.121   7.108  0.1504  0.0677 -0.0044
    1W        W42648  12.602   5.559   1.616  0.1017  0.2884 -0.5374
    1W        W42649   0.148  21.568   6.726 -0.0193  0.0848 -0.1638
    1W        W42650  11.795  15.434   0.879 -0.2459 -0.0831 -0.1973
    1W        W42651   1.930  11.884   6.692  0.1918 -0.0984  0.3650
    1W        W42652  24.372   5.464   0.891 -0.1122  0.1531  0.2195
    1W        W42653  27.409   1.429   6.745  0.1785 -0.2309  0.0979
    1W        W42654  27.670  19.942   7.340  0.2880  0.3646 -0.1431
    1W        W42655  24.504   6.484   7.892 -0.2080  0.2169  0.0641
    1W        W42656   4.160  20.996   9.179 -0.0614 -0.0333  0.1855
    1W        W42657  25.627  11.052   8.763  0.0223  0.0707  0.2866
    1W        W42658   3.437  17.229   0.754 -0.1973  0.0830 -0.2752
    1W        W42659   9.110   4.157   7.691 -0.0570  0.5344  0.1111
    1W        W42660  12.211  12.935   1.426  0.0098 -0.0009  0.0863
    1W        W42661  25.925  21.382   2.109 -0.0531 -0.0876  0.2189
    1W        W42662  25.771  13.175   0.573 -0.4419  0.0500 -0.0891
    1W        W42663  29.762   1.887   7.254  0.1631 -0.0292 -0.2633
    1W        W42664   9.977  29.142   6.962 -0.2215 -0.3513 -0.0705
    1W        W42665  23.552  23.656   7.025  0.0017 -0.1597 -0.2183
    1W        W42666  10.045  18.537   1.706 -0.0415 -0.1746  0.3509
    1W        W42667   3.325  24.080   6.746  0.3138 -0.1978  0.0071
    1W        W42668   6.692   8.827   9.278 -0.3431 -0.0885 -0.2006
    1W        W42669   8.259  25.801   7.952 -0.4098 -0.4395  0.1836
    1W        W42670   3.590  19.165   0.697  0.0060 -0.2319 -0.0147
    1W        W42671  29.088  15.696   9.058 -0.2140  0.2910  0.1716
    1W        W42672  19.232  25.293   0.368  0.0936  0.2148  0.5910
    1W        W42673   5.473   3.090   0.570 -0.0524 -0.0370 -0.1977
    1W        W42674  13.200   2.715   7.942  0.0105 -0.0819 -0.0874
    1W        W42675  29.197  18.198   8.070 -0.0537  0.0945 -0.0153
    1W        W42676  18.612  21.691   9.057  0.1137 -0.2455 -0.1871
    1W        W42677  24.096   6.250   0.645  0.0878 -0.0781  0.2259
    1W        W42678  13.973   2.039   7.804  0.2117 -0.2704 -0.1090
    1W        W42679  28.946  19.164   7.011  0.0796 -0.1702  0.1573
    1W        W42680  16.779  12.152   1.201  0.1109 -0.0653  0.1887
    1W        W42681  22.789   8.225   0.859 -0.1023 -0.0761  0.3754
    1W        W42682  25.841  26.241   0.685  0.1704  0.0435  0.1636
    1W        W42683  16.908   2.170   8.374 -0.1961 -0.1273  0.3060
    1W        W42684  22.121  29.790   1.797 -0.0957  0.1261  0.0865
    1W        W42685   5.024  11.868   0.550 -0.0531  0.3589  0.2253
    1W        W42686   9.192   2.343   0.509  0.0283 -0.2709 -0.0544
    1W        W42687   8.818  17.002   6.208  0.1382 -0.0602  0.1418
    1W        W42688  13.176   6.710   8.775 -0.2077  0.1803 -0.0962
    1W        W42689  11.142  20.818   7.226  0.0671 -0.0433 -0.0149
    1W        W42690  28.085   3.079   1.020  0.1116  0.0973  0.2469
    1W        W42691  12.548   8.966   0.818  0.0919  0.0257 -0.0947
    1W        W42692  16.246   5.589   0.975 -0.0772  0.2583  0.2074
    1W        W42693  22.281  22.220   0.716 -0.1430 -0.0076  0.2256
    1W        W42694   4.234   5.036   0.800  0.1850 -0.2284  0.0424
    1W        W42695  29.365  26.399   9.230 -0.1467 -0.2841  0.1310
    1W        W42696  28.082   7.250   1.758  0.0213  0.0314 -0.1433
    1W        W42697  18.880  15.811   9.196 -0.0558  0.0202 -0.0361
    1W        W42698  27.754   1.355   9.375 -0.0112 -0.2514 -0.0377
    1W        W42699  25.692   8.842   0.915 -0.3337  0.2110  0.0217
    1W        W42700   9.172   1.379   1.348 -0.0128  0.3699  0.0708
    1W        W42701   8.557  15.615   9.028 -0.0241  0.0863 -0.1154
    1W        W42702  29.252  26.621   8.166 -0.3542 -0.2013 -0.1310
    1W        W42703  19.118  17.371   7.783  0.0400 -0.1394 -0.0692
    1W        W42704  25.230   1.278   0.724  0.2194  0.0947 -0.1775
    1W        W42705  10.525  12.850   1.020 -0.3129 -0.2498  0.0986
    1W        W42706  27.676   8.141   6.768 -0.0443 -0.2610 -0.0213
    1W        W42707   1.895   4.513   1.002 -0.0975 -0.2817  0.0037
    1W        W42708   3.904   4.948   1.833 -0.0450  0.1041 -0.0187
    1W        W42709  23.301   7.265   1.843 -0.2514 -0.2137 -0.1807
    1W        W42710  11.371   4.904   0.598  0.2444  0.0568  0.1763
    1W        W42711   1.995  11.108   7.308  0.2193  0.0433  0.1256
    1W        W42712   4.811  22.190   7.131  0.2375 -0.0480 -0.1148
    1W        W42713  18.847   3.292   7.038 -0.0033 -0.0056  0.2984
    1W        W42714  15.613  28.834   7.555  0.0816 -0.1123  0.0902
    1W        W42715  17.798  27.018   8.987 -0.3237  0.1634 -0.0244
    1W        W42716  24.578  23.408   1.273 -0.2084 -0.1954 -0.0318
    1W        W42717  12.394   3.342   7.637 -0.3203 -0.2666  0.0451
    1W        W42718  27.144  28.049   0.553 -0.0482 -0.3210  0.0137
    1W        W42719  24.527  28.269   8.519 -0.3271 -0.2327  0.1000
    1W        W42720  26.000   0.127   8.423 -0.0943  0.0848 -0.5390
    1W        W42721  23.966  15.949   0.313 -0.1857  0.0109  0.0197
    1W        W42722  28.712  19.212   0.740  0.3671  0.4265  0.1742
    1W        W42723  12.114   9.205   0.915 -0.0880 -0.1908 -0.0769
    1W        W42724   9.845  23.640   2.168  0.2783 -0.0405 -0.2288
    1W        W42725  28.356  28.179   9.214  0.1403  0.2470 -0.0968
    1W        W42726   3.524  20.374   0.038 -0.1828 -0.1553 -0.0828
    1W        W42727   3.228  16.475   9.099 -0.3066 -0.2694  0.0585
    1W        W42728   8.885   7.458   8.288  0.1799  0.2227 -0.2119
    1W        W42729  18.259   4.455   6.479 -0.1115  0.0045  0.1321
    1W        W42730   5.136  16.605   0.129 -0.0915 -0.0598 -0.2839
    1W        W42731   6.793  22.012   0.320 -0.1735 -0.1343 -0.0794
    1W        W42732   5.672  24.246   5.433  0.0768 -0.1752 -0.0503
    1W        W42733   1.150  20.127   2.708 -0.0012 -0.0834 -0.1918
    1W        W42734  13.814  13.788   9.447 -0.0565 -0.3825  0.2298
    1W        W42735  16.923  22.139   0.345  0.0080 -0.1290  0.1283
    1W        W42736  25.307  18.536   1.984  0.0678  0.0706 -0.1110
    1W        W42737  14.512   6.381   3.241 -0.1927  0.1392 -0.2040
    1W        W42738   6.942   8.207   7.824  0.0502  0.0891 -0.3288
    1W        W42739  16.438  25.146   9.402 -0.2041 -0.1269  0.4607
    1W        W42740  17.186   3.589   1.827  0.1093 -0.0066  0.0178
    1W        W42741  22.630  27.358   6.416 -0.0878 -0.1324 -0.1916
    1W        W42742   8.767  14.506   1.620 -0.1327  0.1168  0.1386
    1W        W42743  13.207   0.519   8.857 -0.1502 -0.1995 -0.0412
    1W        W42744  25.285  10.849   7.371 -0.0733 -0.1623 -0.0119
    1W        W42745  21.965   8.837   1.351 -0.2563 -0.0352 -0.0495
    1W        W42746  23.148  21.550   0.350  0.3625  0.0381  0.0620
    1W        W42747   4.769  20.096   5.948 -0.0564 -0.2671  0.0248
    1W        W42748  25.941   8.070   8.909 -0.2548 -0.2240 -0.0593
    1W        W42749  27.931  24.360   7.805 -0.0429  0.1400 -0.1222
    1W        W42750   2.144   3.312   6.640  0.1590 -0.0281 -0.2276
    1W        W42751  17.991   7.982   9.054  0.0143 -0.1621  0.1161
    1W        W42752  12.566  16.858   7.968 -0.1385 -0.2141 -0.0413
    1W        W42753  21.922   2.924   3.101 -0.1545 -0.1001 -0.1315
    1W        W42754   5.432  19.297   6.992  0.0386  0.0381 -0.0554
    1W        W42755   7.191  25.961   9.401  0.2189 -0.2349 -0.1040
    1W        W42756   4.890  10.210   2.376  0.0375 -0.0039 -0.3013
    1W        W42757  28.973  26.204   8.038 -0.1604 -0.1946 -0.0138
    1W        W42758  27.032  27.638   9.326 -0.0702 -0.0901 -0.1700
    1W        W42759  17.146   2.723   8.051  0.0915 -0.2293  0.1340
    1W        W42760  29.341  14.712   0.213 -0.1029 -0.2840  0.0598
    1W        W42761   0.454  16.973   2.175  0.2117  0.2166 -0.0109
    1W        W42762   6.443  15.086   6.971  0.2549 -0.0608 -0.0173
    1W        W42763  19.672  18.148   8.451  0.2770 -0.1366  0.1922
    1W        W42764   9.561   8.336   8.324 -0.0193  0.2421  0.2390
    1W        W42765   8.495  27.029   8.396 -0.0191 -0.1972  0.0434
    1W        W42766  13.086  12.845   8.898  0.2520  0.1091  0.0322
    1W        W42767  20.077  27.178   8.801  0.1633 -0.0102  0.1604
    1W        W42768   6.467  28.853   7.067 -0.2970 -0.1670 -0.1829
    1W        W42769  12.256   3.724   2.230 -0.1676 -0.2377 -0.0467
    1W        W42770  29.392  25.258   8.435 -0.1770 -0.4724  0.0452
    1W        W42771   7.924  24.350   8.766  0.1592  0.0517 -0.2232
    1W        W42772   6.633  13.326   7.820 -0.2490  0.2674  0.2610
    1W        W42773  17.435   6.448   0.006  0.1646  0.2633 -0.1414
    1W        W42774  27.996  16.724   0.413 -0.1040  0.1604 -0.1660
    1W        W42775  17.576  29.539   3.438 -0.2373  0.0470 -0.0945
    1W        W42776   2.901   2.542   2.898 -0.0276  0.1627 -0.0672
    1W        W42777  16.619  19.512   8.559 -0.0261 -0.0155  0.0679
    1W        W42778  10.105  22.142   0.126 -0.1486  0.0783  0.3083
    1W        W42779   0.439   8.231   8.700 -0.1605  0.4271  0.2122
    1W        W42780  11.360   1.868   2.330 -0.1454  0.0618  0.1305
    1W        W42781  10.818   6.641   0.856 -0.2221 -0.3234  0.0003
    1W        W42782  15.118  15.823   1.629 -0.0466  0.1578  0.1838
    1W        W42783  13.464  12.048   9.345  0.1225  0.2696  0.5625
    1W        W42784   3.925   2.968   8.210  0.0030 -0.0323 -0.6043
    1W        W42785   1.311  25.709   7.466 -0.0482  0.0051  0.0477
    1W        W42786  16.886  25.719   0.526 -0.1346  0.1354 -0.0915
    1W        W42787   1.472  28.111   1.166  0.2075  0.0032 -0.0422
    1W        W42788  22.975  19.756   1.118 -0.0495 -0.0586  0.1699
    1W        W42789  18.602   6.241   0.810 -0.2153 -0.0792  0.1673
    1W        W42790  19.584  15.640   1.193  0.1538 -0.1307 -0.0360
    1W        W42791   3.449  13.473   7.826  0.1491 -0.1177  0.0150
    1W        W42792  10.983  27.799   2.691 -0.0507 -0.2500  0.0029
    1W        W42793  27.914  13.619   0.470 -0.1745 -0.2606  0.3038
    1W        W42794   2.495  10.181   9.243 -0.1516 -0.2243  0.3509
    1W        W42795   4.407  11.961   1.835  0.1188  0.0439  0.3949
    1W        W42796   0.489  18.067   6.837  0.4426  0.0125  0.1417
    1W        W42797   2.067   6.651   3.529 -0.1880  0.2108  0.1511
    1W        W42798  10.946   5.547   1.726  0.2844 -0.0785 -0.0809
    1W        W42799  11.158  12.090   3.182  0.1165  0.0362  0.1199
    1W        W42800   6.711   6.266   3.078  0.1597  0.0664 -0.0658
    1W        W42801  12.696  28.105   2.407  0.0058 -0.1069  0.1799
    1W        W42802   8.517   3.581   2.222  0.1075  0.1869 -0.0583
    1W        W42803  17.023  16.457   7.100 -0.1287 -0.2339 -0.0776
    1W        W42804   0.743  21.055   0.055  0.2755  0.0429 -0.0822
    1W        W42805  17.552   8.869   1.131 -0.3074 -0.0271 -0.0112
    1W        W42806  24.562  14.948   6.870 -0.0427  0.1963 -0.1237
    1W        W42807  11.498   3.569   8.045  0.0711 -0.0646 -0.1348
    1W        W42808   4.323   4.735   7.453  0.0456 -0.2164  0.1554
    1W        W42809  14.859  24.716   6.582 -0.1213  0.3899  0.0772
    1W        W42810   1.426  26.657   8.544  0.1696  0.0225 -0.0319
    1W        W42811   7.401  10.564   8.872 -0.0785 -0.2867  0.0069
    1W        W42812  24.869   5.322   1.554 -0.1536  0.2039  0.1815
    1W        W42813  27.678  12.677   7.452 -0.1374 -0.0631 -0.0812
    1W        W42814  16.627  19.853   7.307  0.0619 -0.2553  0.1742
    1W        W42815   7.828  17.992   7.730 -0.2358 -0.2283 -0.1723
    1W        W42816  22.054  26.118   7.432 -0.1195  0.0731  0.1213
    1W        W42817  12.862  12.874   8.287  0.1492 -0.6784 -0.0893
    1W        W42818  28.478  17.970   0.120  0.0875  0.1225  0.2736
    1W        W42819  13.241   4.297   3.682 -0.2071  0.1409  0.2267
    1W        W42820   7.414  14.592   1.190  0.0195  0.1633  0.0235
    1W        W42821  26.514  24.677   0.727  0.0176 -0.0097 -0.3698
    1W        W42822   4.549  12.044   6.851  0.0149  0.2010  0.0678
    1W        W42823  10.572  16.234   7.012 -0.1283 -0.1839  0.0534
    1W        W42824  12.755  25.599   9.179  0.0765 -0.0935  0.0191
    1W        W42825  24.165   9.714   8.481 -0.0090  0.0514 -0.0249
    1W        W42826  18.985  23.272   1.945 -0.0080 -0.1050 -0.3719
    1W        W42827   3.877   1.563   0.491 -0.3170  0.1893 -0.0209
    1W        W42828  26.769   6.016   2.054 -0.0274  0.3010  0.0694
    1W        W42829  21.288  10.912   6.279  0.0752  0.0463  0.0301
    1W        W42830  24.275  29.571   1.576 -0.3002 -0.1265  0.1981
    1W        W42831  24.238   5.048   3.254  0.1336  0.6312  0.1985
    1W        W42832  22.698  20.618   8.561  0.2717  0.0492  0.2463
    1W        W42833  27.690  24.583   9.070  0.0801  0.0633  0.2026
    1W        W42834  16.350  10.926   1.942  0.2671  0.0874 -0.2271
    1W        W42835   5.878  15.678   8.367 -0.1447 -0.2360  0.1631
    1W        W42836  16.452  13.949   8.838  0.0156  0.2048  0.0216
    1W        W42837   1.641  24.233   0.646 -0.0201 -0.0968 -0.0252
    1W        W42838  14.633   6.341   2.781  0.1560  0.1809 -0.0334
    1W        W42839  10.026   2.171   8.392  0.1174  0.2537 -0.2285
    1W        W42840   9.278  24.638   7.508  0.1299 -0.0945 -0.1041
    1W        W42841  22.333  14.476   7.754 -0.0853 -0.1973  0.0081
    1W        W42842   5.090  22.415   7.994 -0.2476 -0.2572 -0.0966
    1W        W42843  13.308  23.164   5.955 -0.1382 -0.0827 -0.0622
    1W        W42844  21.470  26.173   7.805  0.1668 -0.0917  0.0944
    1W        W42845   5.642  16.793   7.463  0.2553 -0.2063  0.2157
    1W        W42846  22.073   2.029   7.230  0.3272  0.0272 -0.1517
    1W        W42847  13.719  17.496   7.968 -0.3640 -0.0750  0.0516
    1W        W42848  27.754   4.943   0.558  0.2494 -0.2267 -0.0587
    1W        W42849  27.291  23.892   2.639  0.0789  0.2655  0.4827
    1W        W42850  22.217  27.406   1.659 -0.0099 -0.0282 -0.1108
    1W        W42851  25.779   2.911   2.325  0.0327  0.0649 -0.5036
    1W        W42852  27.668  21.859   5.970  0.0416 -0.3956 -0.3095
    1W        W42853   2.395   2.766   1.557 -0.1720 -0.0015  0.2059
    1W        W42854  25.850  22.519   8.719  0.1049  0.1380 -0.0473
    1W        W42855  28.680  28.464   9.437 -0.0308 -0.1846  0.0925
    1W        W42856  23.615   1.552   2.076 -0.0142 -0.1077 -0.0569
    1W        W42857  24.905  27.469   2.021  0.0976  0.1273  0.4518
    1W        W42858  20.853  18.773   1.146 -0.0666  0.0298 -0.1729
    1W        W42859   0.142  22.390   8.459  0.0979  0.1789 -0.1149
    1W        W42860   6.147  16.564   6.967  0.0542  0.1626 -0.1411
    1W        W42861  25.142  23.325   1.743 -0.0857 -0.1398 -0.1687
    1W        W42862   0.579  28.378   1.032  0.1825  0.1464 -0.1082
    1W        W42863   0.992  10.550   6.665  0.1514  0.1286  0.0345
    1W        W42864   7.284   5.169   0.476 -0.1580 -0.0340 -0.1340
    1W        W42865  28.347  18.431   0.204  0.0259  0.0180  0.0586
    1W        W42866   9.650  25.626   7.360 -0.0341  0.0960  0.2450
    1W        W42867  20.058  14.086   1.800 -0.4474  0.0067  0.2180
    1W        W42868   9.171  24.005   5.777  0.2149 -0.0730  0.1065
    1W        W42869  11.676   2.514   8.640 -0.3845 -0.1360 -0.1135
    1W        W42870   5.627   0.779   3.962  0.3415 -0.2062  0.2735
    1W        W42871   7.151  23.204   5.840 -0.2897 -0.0851 -0.1270
    1W        W42872   7.853  14.390   8.579 -0.2747 -0.0034  0.1645
    1W        W42873   9.019  22.789   0.693  0.1169 -0.1506  0.2609
    1W        W42874  21.531  19.052   2.508 -0.0146  0.1174  0.0197
    1W        W42875  17.221  23.444   2.589  0.0338  0.2160  0.1839
    1W        W42876  13.442   2.198   6.756 -0.2082  0.1718  0.0560
    1W        W42877  27.375   3.078   2.409  0.2695 -0.2414 -0.1198
    1W        W42878  23.395   9.768   8.404 -0.2761  0.0762  0.0495
    1W        W42879  27.155   2.517   6.963 -0.0560  0.0016  0.1190
    1W        W42880   7.030   9.089   1.795 -0.1220  0.1918  0.2123
    1W        W42881   0.891   4.052   0.739  0.0647  0.0135 -0.1174
    1W        W42882   4.137  10.571   7.202 -0.1141 -0.2366  0.0633
    1W        W42883   3.860  15.749   2.365 -0.2526 -0.1332  0.2331
    1W        W42884   1.559  11.928   0.622 -0.1272  0.0248  0.0284
    1W        W42885  24.975   2.487   7.756 -0.0810  0.1005 -0.2699
    1W        W42886  16.076  14.384   7.719  0.2776 -0.4035 -0.0001
    1W        W42887  17.452  23.806   2.964 -0.1839  0.1145 -0.3294
    1W        W42888   3.484   2.753   8.065  0.2653 -0.0612 -0.1937
    1W        W42889   0.237   2.884   2.595  0.0137  0.0174 -0.1108
    1W        W42890  29.068   6.198   9.262 -0.0114  0.3317  0.0281
    1W        W42891   8.613  12.805   6.913 -0.0132 -0.0581 -0.1038
    1W        W42892  24.802  17.543   1.816 -0.0815 -0.1236 -0.0588
    1W        W42893  11.410  26.496   8.345 -0.0288  0.0593 -0.0555
    1W        W42894  24.695  27.919   9.251  0.3843  0.1088  0.1566
    1W        W42895  16.133   0.011   1.614 -0.5757  0.1279 -0.3494
    1W        W42896   0.589   2.128   6.039 -0.1261  0.2108  0.0933
    1W        W42897  28.315  27.709   9.411 -0.1136 -0.1738  0.2613
    1W        W42898   0.582  22.803   2.033 -0.2727 -0.3400 -0.1736
    1W        W42899  26.738   6.124   7.948  0.0474  0.2073 -0.1677
    1W        W42900  10.176  21.447   9.348  0.1819 -0.0707  0.1034
    1W        W42901   6.688  23.385   3.056  0.0191 -0.1580  0.0468
    1W        W42902   3.998  22.117   1.666 -0.0979  0.1303 -0.2001
    1W        W42903  25.137   3.724   2.665 -0.3230  0.2928  0.0519
    1W        W42904  29.208  21.090   8.715  0.4039 -0.0043 -0.0573
    1W        W42905   5.239  10.469   1.645  0.1507 -0.0107 -0.0543
    1W        W42906  11.295  15.257   0.951  0.1383 -0.2421  0.2057
    1W        W42907   6.096  17.404   2.244 -0.0828 -0.0667  0.1430
    1W        W42908  22.349   7.505   7.935  0.1582 -0.0826 -0.1716
    1W        W42909  10.111  26.357   7.786 -0.0999 -0.0695  0.2293
    1W        W42910  25.955  17.221   2.286 -0.1231  0.0983 -0.0187
    1W        W42911  10.339  11.081   2.526  0.1925  0.0287  0.0961
    1W        W42912  18.226  10.956   6.744  0.2813  0.0331 -0.0223
    1W        W42913  19.584   4.783   0.707  0.0699  0.0068  0.2973
    1W        W42914   2.100   5.675   8.646  0.2806  0.3438 -0.0146
    1W        W42915  29.186   8.317   0.161 -0.4527  0.0088 -0.0291
    1W        W42916  10.358  24.259   8.449  0.2749  0.1629  0.0131
    1W        W42917  14.848   6.818   2.181  0.0214  0.1326  0.0748
    1W        W42918   8.152  18.055   0.136  0.1128 -0.1087 -0.1185
    1W        W42919  20.295  21.916   7.852 -0.1335 -0.1940  0.0018
    1W        W42920  12.216  25.209   0.361  0.1382  0.4060  0.3044
    1W        W42921  14.808  28.293   0.500 -0.1162  0.2235 -0.2487
    1W        W42922  25.891  23.342   8.223  0.2397 -0.2617  0.0774
    1W        W42923  27.017  15.740   0.247 -0.3993  0.4208  0.1237
    1W        W42924  29.510  13.859   6.443 -0.1902 -0.0698  0.1268
    1W        W42925   7.575  25.338   1.993  0.0400 -0.1858 -0.3933
    1W        W42926   6.540  19.170   8.958 -0.0821  0.0254 -0.2401
    1W        W42927   7.373  21.412   1.900 -0.0911  0.0761 -0.2454
    1W        W42928  14.060  21.344   0.673 -0.0818 -0.3502 -0.2176
    1W        W42929   2.872  29.592   1.270  0.1108  0.3081  0.0345
    1W        W42930  18.665   3.053   1.719 -0.3355 -0.1237 -0.0402
    1W        W42931   9.386  15.480   8.041 -0.2655  0.0613  0.0082
    1W        W42932  13.930   2.085   8.765 -0.0186  0.1365 -0.0913
    1W        W42933  23.520  25.019   0.310  0.3373  0.1939  0.1817
    1W        W42934  26.450   2.783   3.373  0.1703  0.0644 -0.1695
    1W        W42935  16.869   4.496   1.077  0.2395 -0.1179  0.1041
    1W        W42936  22.801   2.727   1.120  0.2706  0.1453  0.1375
    1W        W42937  12.027  22.012   9.317 -0.0302 -0.2246 -0.0811
    1W        W42938  25.146  27.582   3.454  0.1477  0.2121 -0.0042
    1W        W42939   1.335  17.645   7.296  0.1965  0.2238 -0.0524
    1W        W42940  26.576   6.975   0.213 -0.3136 -0.0018  0.1506
    1W        W42941  14.446   6.298   0.797 -0.1011  0.1051  0.1488
    1W        W42942  18.201   0.324   2.548  0.0364 -0.2659  0.3858
    1W        W42943   5.929  12.514   8.323 -0.1663  0.1967  0.1113
    1W        W42944  17.015   1.975   3.237  0.1015 -0.0393  0.0963
    1W        W42945  17.251  18.920   2.100 -0.0407 -0.0403  0.1319
    1W        W42946  15.268   2.980   1.699  0.1655  0.0478  0.1541
    1W        W42947  22.831  25.062   1.106  0.0737  0.0314  0.2690
    1W        W42948  20.669  26.898   1.848  0.1152  0.1675  0.0789
    1W        W42949   9.007  29.245   1.773 -0.3861  0.2826  0.2484
    1W        W42950  26.505  10.925   6.583 -0.0283  0.2129  0.1962
    1W        W42951  11.316  23.090   9.126 -0.1402  0.0627  0.0622
    1W        W42952  14.077  11.907   8.299 -0.0320  0.1624  0.2051
    1W        W42953  12.284  17.141   1.315  0.1284  0.0540  0.0516
    1W        W42954  18.574  12.861   8.778  0.0005 -0.0555 -0.0808
    1W        W42955  19.470   5.004   8.548 -0.0681  0.1043  0.0974
    1W        W42956  26.514  16.470   7.017 -0.1650  0.1216 -0.1197
    1W        W42957  17.855  11.555   1.579 -0.0632 -0.2532 -0.1485
    1W        W42958  23.876  20.265   1.683  0.0237  0.1470 -0.1120
    1W        W42959   4.995   6.484   2.566 -0.0705  0.1977  0.0809
    1W        W42960  27.743   0.675   7.681  0.0609 -0.1320  0.0436
    1W        W42961  11.674   5.430   8.469  0.2506  0.1985 -0.0341
    1W        W42962  25.238   3.232   0.421 -0.2195  0.1030 -0.2194
    1W        W42963  18.413  25.078   0.970 -0.0363 -0.0548  0.0237
    1W        W42964  16.829  16.944   0.624  0.0212 -0.4311 -0.0968
    1W        W42965   7.715  10.740   0.432  0.2321  0.0727  0.1991
    1W        W42966  29.510  28.317   8.578 -0.0815 -0.1189  0.1278
    1W        W42967   7.900   9.742   7.812  0.3026 -0.0283  0.2207
    1W        W42968   3.180  27.987   6.928 -0.0768  0.2129  0.1094
    1W        W42969  14.932  22.243   8.045 -0.0068 -0.2133  0.0567
    1W        W42970   8.792  27.285   7.956 -0.2922  0.3053 -0.0495
    1W        W42971   6.094  15.980   1.984  0.0612 -0.5861 -0.1077
    1W        W42972   9.835   5.097   7.224  0.1054 -0.2994  0.3243
    1W        W42973   2.201  14.367   8.171 -0.0003  0.1169  0.0667
    1W        W42974  10.973   0.321   0.228  0.1090 -0.1821 -0.1028
    1W        W42975   9.907  10.838   1.833 -0.1870  0.1902 -0.0935
    1W        W42976   1.711  21.219   8.109 -0.0260  0.0060  0.0442
    1W        W42977   0.716  25.503   8.713 -0.2263  0.0543  0.0502
    1W        W42978  12.549  19.030   1.580  0.3386  0.0219  0.1098
    1W        W42979   7.576  18.036   1.082 -0.2266 -0.1085 -0.2562
    1W        W42980   1.906  16.980   6.736  0.0964 -0.0428  0.1475
    1W        W42981  19.390  28.415   7.187 -0.1188 -0.0940  0.2081
    1W        W42982  18.328  29.550   7.608 -0.0210  0.2183 -0.2563
    1W        W42983  29.420  14.931   7.891  0.0037 -0.1604 -0.1809
    1W        W42984   4.238   4.256   1.249 -0.0561  0.1432 -0.1501
    1W        W42985   9.406  23.280   8.170  0.2514  0.2907  0.0579
    1W        W42986   8.528  25.365   1.392 -0.1620  0.0784  0.2257
    1W        W42987  19.629  22.202   2.528 -0.0375 -0.1242  0.1106
    1W        W42988   1.565  10.668   5.783  0.1346  0.1271  0.0057
    1W        W42989  26.376  24.304   2.190 -0.2837 -0.0048  0.0201
    1W        W42990  29.790  23.617   7.553 -0.0041 -0.0074 -0.0754
    1W        W42991   7.785   5.054   0.618 -0.2383 -0.3104  0.0670
    1W        W42992   9.454  10.612   8.759  0.1211 -0.0401  0.2096
    1W        W42993  16.999   2.850   3.010 -0.0755  0.1818  0.1029
    1W        W42994  22.934  10.142   1.028 -0.0901 -0.1926  0.0731
    1W        W42995  13.750  20.357   0.280  0.0386 -0.0697 -0.3481
    1W        W42996  11.240   6.583   8.085  0.1854  0.0771 -0.0604
    1W        W42997  15.368   2.800   0.849 -0.1069 -0.1820 -0.0315
    1W        W42998   3.778   9.153   6.718  0.1274 -0.2805  0.1880
    1W        W42999  27.385  10.681   8.544  0.1594  0.2667  0.0060
    1W        W43000  12.788  14.008   2.708  0.0768  0.2321  0.0075
    1W        W43001  15.927  27.407   9.115 -0.1665  0.3296 -0.0522
    1W        W43002  14.807  15.957   0.661  0.2191 -0.4839  0.1257
    1W        W43003   4.763  14.516   5.620  0.3694 -0.1915  0.1149
    1W        W43004  21.494  25.918   3.497 -0.0360  0.2723 -0.2216
    1W        W43005   9.878  18.323   2.105 -0.0136  0.2508 -0.2997
    1W        W43006  24.832  21.743   0.754 -0.3936 -0.0244 -0.0066
    1W        W43007  23.307   2.397   9.398  0.0203  0.0028 -0.0199
    1W        W43008  12.101  12.585   8.873  0.1142  0.0512  0.1091
    1W        W43009  26.408   5.695   8.903  0.0941  0.0731  0.1940
    1W        W43010  16.677  12.920   8.997 -0.0473  0.2078 -0.3816
    1W        W43011  11.173  29.268   7.785 -0.0274  0.1415 -0.0403
    1W        W43012  18.650  10.038   8.936  0.0054 -0.0552 -0.0053
    1W        W43013  21.134  18.275   7.527 -0.2167  0.0018  0.2412
    1W        W43014  19.306   1.041   9.087  0.2961 -0.2649 -0.2974
    1W        W43015  14.809  26.804   8.491  0.1727  0.1455  0.0352
    1W        W43016  28.715  27.416   7.437 -0.3201 -0.0459 -0.3282
    1W        W43017   1.502  26.071   9.034 -0.2174  0.0435 -0.6414
    1W        W43018  22.860  15.775   7.537  0.0907 -0.2020  0.2393
    1W        W43019  15.576  17.806   0.878  0.1478 -0.0030  0.1703
    1W        W43020   8.545  26.682   7.476  0.1251  0.1361  0.0358
    1W        W43021   1.773  27.147   2.437 -0.0047 -0.0741  0.3612
    1W        W43022  20.492  27.194   2.317 -0.1060  0.0229  0.0025
    1W        W43023  10.349   8.694   0.317  0.2011  0.2266 -0.0832
    1W        W43024  20.111  17.245   7.772 -0.2489  0.0817 -0.0045
    1W        W43025  28.939  28.956   9.323 -0.0678  0.2854 -0.1883
    1W        W43026  29.637  22.078   8.253  0.2506  0.1063  0.2871
    1W        W43027  22.321   7.209   3.174 -0.0150  0.1612 -0.0107
    1W        W43028   8.143   5.865   0.730 -0.0701  0.2658  0.3301
    1W        W43029   3.548  12.160   9.098  0.2761  0.1226 -0.0744
    1W        W43030  23.825   1.065   8.523  0.0465  0.3860  0.1073
    1W        W43031   3.485  15.046   7.191 -0.0406  0.1183 -0.0835
    1W        W43032  10.649  11.167   8.374  0.0271  0.1392  0.3819
    1W        W43033  29.672  24.253   9.093  0.0236  0.2541 -0.0413
    1W        W43034  17.520   2.838   0.336 -0.2333  0.0756 -0.1921
    1W        W43035   0.388   3.974   0.803  0.1485 -0.0331  0.1699
    1W        W43036  24.147  18.970   1.147  0.1186 -0.0532 -0.2323
    1W        W43037   9.698   7.871   7.726  0.0613  0.2987 -0.1624
    1W        W43038   8.380   0.959   7.579 -0.2880 -0.2995  0.2339
    1W        W43039   3.322  19.030   1.165 -0.0288 -0.3212  0.1482
    1W        W43040   6.135   8.069   2.594 -0.0358 -0.2118  0.1111
    1W        W43041  11.644   2.254   1.463  0.1862  0.0960 -0.2102
    1W        W43042   3.475  11.128   1.264 -0.0612 -0.0813 -0.2549
    1W        W43043   3.761  19.144   6.546 -0.3253  0.1515 -0.0327
    1W        W43044  17.079  11.160   1.335  0.2286  0.0967 -0.2011
    1W        W43045  20.313   7.639   6.923 -0.1295  0.1918 -0.0821
    1W        W43046  21.394  14.217   1.510 -0.3355 -0.3188  0.0274
    1W        W43047  27.452   0.293   7.613  0.1575  0.0275 -0.1204
    1W        W43048  13.308   9.642   8.684  0.2375 -0.2541 -0.2117
    1W        W43049   1.434   9.889   2.869 -0.0196  0.0975 -0.0360
    1W        W43050   5.305  25.203   8.598 -0.2130 -0.0593  0.1913
    1W        W43051  26.750   9.823   7.551 -0.0844 -0.0405  0.1162
    1W        W43052  21.394   9.522   6.015 -0.0510 -0.0087  0.2621
    1W        W43053  20.386   3.748   2.003 -0.0368  0.2950  0.0127
    1W        W43054  16.283  20.288   7.958  0.1431 -0.0601 -0.2805
    1W        W43055   2.010  28.388   6.240 -0.1284  0.0037  0.2769
    1W        W43056   2.040  23.815   1.387 -0.0594 -0.0925 -0.1036
    1W        W43057   2.705  15.633   6.109  0.2370 -0.0167 -0.0536
    1W        W43058  13.390   1.126   1.048 -0.2262  0.1726  0.1903
    1W        W43059  12.755   3.732   2.412 -0.0989 -0.1200 -0.0363
    1W        W43060   3.767   9.192   3.234  0.1531 -0.0809  0.2154
    1W        W43061   2.900   2.324   2.360 -0.1029 -0.1315  0.0101
    1W        W43062  12.623  10.316   6.566 -0.2307 -0.4729  0.3813
    1W        W43063  29.210  23.336   7.038  0.4921  0.0790 -0.0217
    1W        W43064  16.183  23.357   8.721  0.1791 -0.1573  0.1736
    1W        W43065  15.226  24.658   6.246  0.0694 -0.2634 -0.0857
    1W        W43066  27.803  20.949   0.350 -0.0293  0.4107  0.2578
    1W        W43067  17.678  11.821   7.964 -0.1641  0.1657  0.1896
    1W        W43068   1.458  24.765   6.279 -0.0321  0.2078 -0.2721
    1W        W43069   2.023  24.854   1.084 -0.2118  0.0273  0.2060
    1W        W43070   9.012  23.317   9.270 -0.0533 -0.1222  0.0811
    1W        W43071  17.241  28.647   3.153  0.2989 -0.1084 -0.3783
    1W        W43072   9.846  22.389   1.071 -0.2332 -0.1337 -0.0021
    1W        W43073  25.026  21.351   1.844  0.2874  0.0457 -0.1717
    1W        W43074   1.759  17.487   0.911 -0.3618  0.0331 -0.0033
    1W        W43075   3.356   1.901   2.483  0.1159  0.1436  0.1850
    1W        W43076  24.526   6.389   6.459  0.0647  0.1792  0.0745
    1W        W43077  11.030   4.002   3.319  0.0372 -0.0669  0.3030
    1W        W43078   3.904   2.563   1.290  0.1629  0.0414  0.1316
    1W        W43079  14.617  24.965   9.107 -0.1984  0.0514 -0.1650
    1W        W43080   5.302   7.103   8.243 -0.1363  0.1443  0.2493
    1W        W43081  19.957  27.943   8.754 -0.1453  0.1250  0.0459
    1W        W43082   9.467   0.868   2.119  0.1735  0.0653 -0.1900
    1W        W43083  29.687  14.555   8.765  0.2896 -0.0698  0.0630
    1W        W43084   4.879   1.996   8.131 -0.1894 -0.0295 -0.0253
    1W        W43085   5.223  17.732   2.431  0.0912 -0.0864  0.0678
    1W        W43086  26.609  27.329   0.046 -0.1368 -0.2784  0.1011
    1W        W43087  15.643   2.577   8.953 -0.4727 -0.2107  0.2712
    1W        W43088  15.104  24.994   8.117  0.2433  0.2122  0.1265
    1W        W43089  15.542  26.084   7.576 -0.2802 -0.2102 -0.3894
    1W        W43090  17.622  24.816   1.886  0.0787 -0.3294  0.3566
    1W        W43091   2.076  22.660   7.448 -0.3481 -0.0384 -0.0519
    1W        W43092  11.474  19.778   0.151 -0.2171  0.2064 -0.0494
    1W        W43093  20.456   5.979   2.354  0.1798  0.4399 -0.1880
    1W        W43094  23.318  26.492   1.502 -0.0572 -0.2041 -0.1980
    1W        W43095   6.889  21.186   2.178 -0.1018  0.1508 -0.0359
    1W        W43096  18.987  26.992   0.672 -0.2203  0.3291 -0.1127
    1W        W43097  15.631  19.833   8.457  0.3776  0.1738  0.1156
    1W        W43098  11.780  23.242   8.164  0.0537 -0.2757  0.0732
    1W        W43099  10.715   7.805   7.933  0.1634  0.1051  0.0451
    1W        W43100  21.090  12.817   1.414 -0.2802  0.1541 -0.0780
    1W        W43101   9.836  22.198   6.025 -0.0017  0.0036  0.0677
    1W        W43102   7.330  23.279   1.541  0.1420  0.1257 -0.2823
    1W        W43103  17.140   0.728   8.501  0.1548 -0.0084 -0.0766
    1W        W43104  27.211   7.434   0.612 -0.2928 -0.2213 -0.1333
    1W        W43105  14.994  16.527   7.392 -0.2323  0.2734 -0.0442
    1W        W43106   3.128  19.479   1.098  0.3557 -0.1126 -0.2278
    1W        W43107  29.047   5.505   8.336 -0.0428  0.1884 -0.3799
    1W        W43108  11.018  11.875   7.486  0.1675  0.0485  0.2144
    1W        W43109  16.258   0.845   1.395 -0.3888 -0.0046 -0.2413
    1W        W43110   6.217  11.655   1.271 -0.2717 -0.0066 -0.1746
    1W        W43111   3.072  14.178   0.703  0.1751 -0.1405  0.1504
    1W        W43112  10.705   5.633   2.151  0.0284 -0.2635  0.1225
    1W        W43113   8.069  25.804   8.856  0.0038  0.0195  0.4133
    1W        W43114   6.631  19.968   2.445 -0.1823 -0.2246 -0.0724
    1W        W43115   5.890  16.707   8.362 -0.1920 -0.2273 -0.1714
    1W        W43116  15.502  17.406   1.349  0.0738  0.1373  0.0841
    1W        W43117   9.522   6.359   1.941  0.0310 -0.1066 -0.0058
    1W        W43118  21.560  17.235   8.912  0.0843  0.1644 -0.1413
    1W        W43119  15.572  21.692   9.127 -0.1135  0.0621  0.1101
    1W        W43120   1.703   1.783   8.612 -0.0455  0.1331  0.0677
    1W        W43121  20.743   8.824   8.050 -0.0861  0.2106 -0.0442
    1W        W43122   9.399   2.736   3.612 -0.2888  0.1036 -0.0624
    1W        W43123  22.066  10.893   6.598  0.1659  0.1175  0.1059
    1W        W43124  19.825   0.700   9.278  0.1495  0.1857  0.2436
    1W        W43125  20.051  26.031   2.806  0.1405 -0.0708 -0.2621
    1W        W43126   7.692  17.217   0.684 -0.1521  0.0452  0.0166
    1W        W43127   1.851  13.283   0.040  0.0116  0.2269  0.1458
    1W        W43128   3.833  29.616   1.164 -0.1007 -0.1419  0.0393
    1W        W43129   1.189   2.174   2.273 -0.2864  0.1147 -0.2581
    1W        W43130   0.676   1.279   1.371 -0.0451 -0.3233 -0.0555
    1W        W43131  16.436  12.127   0.153 -0.0396  0.1222  0.1154
    1W        W43132   5.635  20.994   1.050 -0.0337 -0.1226 -0.0264
    1W        W43133   0.411  10.451   3.019 -0.1317  0.1296  0.2544
    1W        W43134   0.328  28.374   2.926  0.0897 -0.0056 -0.2879
    1W        W43135  23.406  11.712   7.767  0.2465  0.2018  0.2658
    1W        W43136  27.882  21.329   2.298  0.0533 -0.1213 -0.2566
    1W        W43137   9.104  27.438   7.607 -0.1201 -0.0892  0.1658
    1W        W43138   6.491   6.027   7.115  0.0087  0.0828  0.1048
    1W        W43139   0.591  12.794   8.220 -0.0998 -0.0023  0.0094
    1W        W43140   8.158  27.187   0.088  0.0132  0.4581  0.1549
    1W        W43141   1.337  24.420   2.822 -0.1935  0.2430  0.5001
    1W        W43142  20.326   8.823   7.483  0.0040 -0.0319 -0.0359
    1W        W43143  16.664  18.856   8.286 -0.0870 -0.1476  0.2493
    1W        W43144  12.006  24.525   1.263  0.0428  0.0553  0.0040
    1W        W43145  20.197  12.156   9.117  0.3220  0.1996 -0.0066
    1W        W43146   8.520   9.045   7.491  0.2058  0.3840 -0.2061
    1W        W43147  13.591  24.652   9.360  0.0195  0.1279 -0.1150
    1W        W43148   1.175   5.831   7.404  0.0037  0.1878  0.0590
    1W        W43149  24.593  10.136   1.505 -0.0705  0.3255  0.2147
    1W        W43150  19.575  28.600   1.923  0.1334  0.1163  0.0929
    1W        W43151  21.918   0.649   0.016 -0.1333 -0.1621  0.1270
    1W        W43152   2.658   0.286   7.257  0.1747 -0.1321 -0.2431
    1W        W43153  27.327   6.386   7.329 -0.3101  0.1771 -0.0566
    1W        W43154  20.281   7.089   2.045 -0.2017 -0.2023 -0.2238
    1W        W43155  13.709  19.064   8.382 -0.0789  0.1095  0.1633
    1W        W43156  18.787  21.890   7.751 -0.0738  0.3626  0.0122
    1W        W43157  24.579  23.280   6.209 -0.3625  0.2295  0.2274
    1W        W43158  26.754  18.332   7.484 -0.2396 -0.0759  0.2361
    1W        W43159  10.662  10.019   1.442  0.2042 -0.0219 -0.0066
    1W        W43160  25.739   4.125   7.515 -0.2885  0.1599  0.2734
    1W        W43161   2.658   9.023   0.574  0.1594 -0.1233  0.2201
    1W        W43162  15.400  17.328   0.847 -0.0047 -0.1342  0.6758
    1W        W43163  27.022  12.984   6.175 -0.1967 -0.3270  0.0086
    1W        W43164  28.544  17.532   9.364  0.1155 -0.0575 -0.0544
    1W        W43165  24.505  29.283   0.502  0.3249 -0.0834  0.2806
    1W        W43166   4.709  15.427   2.224  0.1210  0.0259 -0.0858
    1W        W43167  24.007  15.103   7.147  0.0185 -0.1488 -0.0591
    1W        W43168  10.678  24.316   0.730  0.1270  0.4680  0.1103
    1W        W43169   0.390  19.721   7.548 -0.1960 -0.1371 -0.1202
    1W        W43170   7.867  26.337   1.806  0.2293  0.0414 -0.0990
    1W        W43171   0.021  23.776   0.405 -0.1903 -0.1406  0.1410
    1W        W43172   2.019  24.512   0.263  0.3488 -0.2019  0.2153
    1W        W43173  10.159  12.314   7.584 -0.0569  0.1030  0.0818
    1W        W43174  24.881  27.784   8.078  0.1832  0.2666 -0.0112
    1W        W43175   6.963   1.592   7.507  0.1186 -0.1519 -0.1137
    1W        W43176  26.913  16.437   7.413 -0.3289 -0.2731 -0.1740
    1W        W43177  12.803  20.355   0.064  0.2863 -0.3052  0.1517
    1W        W43178  19.855  12.246   1.386  0.0721 -0.0609  0.0504
    1W        W43179  17.221   3.916   8.519  0.1273  0.1679  0.2330
    1W        W43180  19.488  17.034   0.972  0.0266 -0.0753  0.3821
    1W        W43181  28.770  27.959   9.396 -0.5600  0.0707 -0.1883
    1W        W43182   3.669   4.875   8.182  0.0758  0.0210  0.3818
    1W        W43183  28.755  16.210   1.433  0.0694 -0.3326  0.0025
    1W        W43184  19.634  27.750   1.938 -0.4587 -0.0702  0.3403
    1W        W43185  17.941  16.954   1.216  0.0650  0.0136 -0.1115
    1W        W43186   4.893   8.815   7.169  0.0988  0.0036  0.0889
    1W        W43187  29.396  20.086   9.172 -0.1111 -0.1428 -0.1976
    1W        W43188   6.724  25.458   8.053  0.0746 -0.0127 -0.1668
    1W        W43189  27.771  24.496   7.323 -0.2121  0.2779  0.0491
    1W        W43190   3.850  24.143   6.742 -0.0775 -0.1341 -0.0665
    1W        W43191   9.314   2.847   1.360  0.1470  0.1734 -0.2719
    1W        W43192   9.837  23.670   1.652  0.3827 -0.1437 -0.1450
    1W        W43193   7.281   0.878   1.986 -0.1852  0.0118 -0.1474
    1W        W43194   7.862   7.833   9.192 -0.0689 -0.1402 -0.0575
    1W        W43195  11.156  22.419   0.387 -0.0103  0.0300  0.2326
    1W        W43196   3.097  21.329   6.786 -0.1839  0.0347  0.2815
    1W        W43197  21.307   3.651   2.690  0.0258 -0.0699  0.0217
    1W        W43198  21.453   4.098   1.348 -0.0900  0.3314 -0.0661
    1W        W43199  13.634  18.191   7.413  0.0296  0.0017  0.3651
    1W        W43200  18.306  23.967   7.560 -0.2510  0.0320 -0.0328
    1W        W43201  20.450  29.389   9.271  0.0826 -0.0355  0.1107
    1W        W43202  16.424   6.593   2.247 -0.1811 -0.1847  0.3219
    1W        W43203   5.801  28.583   0.847  0.0277  0.2150 -0.0503
    1W        W43204   9.668  28.229   8.240 -0.2136  0.0181  0.1510
    1W        W43205  14.719  20.998   7.909  0.1787  0.2155 -0.1482
    1W        W43206   2.575   0.442   6.418 -0.0384 -0.0829 -0.0407
    1W        W43207  17.528  23.847   3.482  0.2843  0.0381 -0.2289
    1W        W43208  12.800  25.460   1.636  0.0651 -0.0691  0.1938
    1W        W43209   3.296   6.386   1.946  0.3585 -0.1598  0.1427
    1W        W43210  25.615   0.674   8.452  0.2499 -0.0739 -0.0455
    1W        W43211   1.757  21.230   8.965  0.1618 -0.0498  0.0538
    1W        W43212   2.372  15.375   7.760  0.1613 -0.2118 -0.0184
    1W        W43213  21.497  20.776   7.592 -0.0305 -0.0620  0.0060
    1W        W43214  28.637   3.072   0.944  0.1510 -0.0861  0.1483
    1W        W43215   3.030  23.995   8.930 -0.1252  0.0988 -0.0014
    1W        W43216   5.665   2.293   2.163  0.1002  0.0817 -0.0564
    1W        W43217  12.577  22.449   8.479  0.0291  0.0417  0.1814
    1W        W43218  25.797   4.597   1.699 -0.2424 -0.0153 -0.2006
    1W        W43219  10.530  21.279   9.054  0.0362  0.1354 -0.1251
    1W        W43220  13.270  29.728   1.360 -0.1584  0.0906 -0.2463
    1W        W43221  19.215   2.133   8.567  0.1129  0.0307 -0.2176
    1W        W43222  22.477  14.450   2.197 -0.1775 -0.0582 -0.4191
    1W        W43223  27.808  19.350   7.298 -0.0573 -0.0553  0.1425
    1W        W43224  10.475   1.544   1.486 -0.3035 -0.1368 -0.0407
    1W        W43225  10.927   8.404   0.098 -0.0405  0.1060  0.0519
    1W        W43226   3.631   4.167   7.391  0.1007 -0.2088 -0.0917
    1W        W43227   8.774  18.507   7.320  0.0151 -0.0158 -0.4624
    1W        W43228  17.347   8.311   9.384  0.0869 -0.2160  0.0651
    1W        W43229   9.514   5.266   2.639 -0.1387  0.0763  0.0779
    1W        W43230   9.266  27.565   2.422  0.2973 -0.1595 -0.0725
    1W        W43231  14.938  20.206   1.520  0.0615 -0.1461 -0.2224
    1W        W43232  18.385  15.737   8.949  0.2864 -0.0474 -0.0322
    1W        W43233   5.765  12.968   8.208 -0.3203  0.3175 -0.0651
    1W        W43234   4.538  24.573   0.388 -0.1601  0.2834 -0.0958
    1W        W43235   0.787  29.302   7.771 -0.0328 -0.2347 -0.1240
    1W        W43236  19.755  16.767   1.324 -0.1452  0.2369  0.1814
    1W        W43237  23.848   2.764   1.987 -0.0057 -0.1244  0.0564
    1W        W43238   0.871  11.198   3.150  0.0776 -0.3955  0.1264
    1W        W43239   1.414  25.894   8.037  0.2494  0.1159  0.1868
    1W        W43240  10.465  18.644   7.513  0.2115  0.0374 -0.0342
    1W        W43241  20.902  15.529   8.419 -0.2418  0.2519 -0.2461
    1W        W43242  28.962   4.360   9.439 -0.0835 -0.0947  0.1332
    1W        W43243  19.866  18.067   0.679 -0.1619 -0.0517 -0.1178
    1W        W43244  24.326  21.378   7.474  0.1161  0.3749  0.1552
    1W        W43245  12.780  19.414   1.310  0.0221  0.1712 -0.1824
    1W        W43246   3.579  15.596   6.181  0.3572  0.0997 -0.2692
    1W        W43247  19.567   1.261   8.668 -0.2026 -0.0655  0.5675
    1W        W43248  15.609  26.978   1.183  0.2832  0.2221 -0.3439
    1W        W43249  21.700   9.078   7.268 -0.1659 -0.1238 -0.2068
    1W        W43250  20.108  11.651   0.927  0.1210  0.0708 -0.0992
    1W        W43251  24.047  10.122   1.794 -0.0220  0.3073  0.2721
    1W        W43252  14.952  11.361   1.969 -0.1539  0.1311 -0.0680
    1W        W43253  12.604  18.887   1.119  0.0615 -0.0281 -0.0222
    1W        W43254   6.051  11.120   6.305 -0.0826  0.0597 -0.4209
    1W        W43255  29.629  20.839   9.017 -0.2327 -0.0256  0.1487
    1W        W43256  25.146  23.219   8.566  0.1327  0.0731 -0.1915
    1W        W43257  12.172  15.319   6.927  0.3146  0.1708 -0.2387
    1W        W43258  16.554  25.423   7.276  0.0557 -0.4219 -0.0092
    1W        W43259  15.263  17.185   0.018  0.0162 -0.0298  0.1329
    1W        W43260  26.943  25.448   1.790 -0.2686 -0.1861  0.1401
    1W        W43261   9.059   5.164   1.086  0.5794 -0.1396  0.1468
    1W        W43262  17.283  20.228   8.584  0.0434  0.0939 -0.1569
    1W        W43263  20.965  25.002   1.347 -0.1498  0.1837 -0.0756
    1W        W43264  13.152   5.302   8.902 -0.1941 -0.3798  0.0490
    1W        W43265  24.597   4.019   8.889  0.0391  0.1101  0.0014
    1W        W43266  26.811  24.487   1.208 -0.0625  0.0675  0.0403
    1W        W43267  27.248  22.841   1.686 -0.0149 -0.1294 -0.1588
    1W        W43268   0.327  18.707   9.399 -0.3163 -0.2975 -0.4487
    1W        W43269  29.060   5.207   1.216 -0.1386  0.2273 -0.1365
    1W        W43270   9.253  22.636   9.137 -0.1850 -0.0437 -0.0498
    1W        W43271  21.463  16.395   2.209 -0.3379 -0.0788 -0.3016
    1W        W43272   0.718   2.858   2.307 -0.1072 -0.1627 -0.1371
    1W        W43273   0.199  28.341   0.718 -0.0528  0.0995  0.1099
    1W        W43274   5.259  29.307   2.115 -0.0482 -0.0209 -0.2460
    1W        W43275  25.693  12.607   6.822  0.3237  0.0427 -0.2291
    1W        W43276  19.071  15.411   1.364  0.0474 -0.1687  0.1836
    1W        W43277  19.266  28.406   3.126  0.2951  0.1793  0.0483
    1W        W43278   0.766  29.182   8.306  0.1068 -0.1408  0.1452
    1W        W43279  13.177   3.114   9.444 -0.1352  0.0710  0.0657
    1W        W43280   4.272  29.241   6.444 -0.2181 -0.0070  0.1804
    1W        W43281  13.524   7.286   0.981  0.2871 -0.0449 -0.1002
    1W        W43282  24.973  15.832   1.102  0.1841  0.0580  0.1405
    1W        W43283  11.594   5.600   7.106 -0.1542  0.2712  0.0595
    1W        W43284   9.474  15.017   7.821 -0.0930 -0.0828 -0.0250
    1W        W43285   0.374  27.718   6.720  0.0807  0.3787 -0.0625
    1W        W43286   3.614  11.067   0.312  0.2477  0.1505  0.0492
    1W        W43287  25.063   3.436   9.275  0.0302 -0.0105 -0.1939
    1W        W43288  26.183   6.115   8.706 -0.2020 -0.0954  0.1910
    1W        W43289  24.454  25.698   7.280 -0.2772  0.0160  0.0926
    1W        W43290  12.315  27.158   7.248  0.3186 -0.0620 -0.0461
    1W        W43291  15.393   2.293   2.378 -0.0910 -0.0301  0.1323
    1W        W43292  28.061  10.099   0.245 -0.4113  0.1579 -0.2312
    1W        W43293  11.360  21.750   1.823 -0.1357  0.3626  0.1711
    1W        W43294  22.504  27.894   0.880  0.0085 -0.3009  0.2121
    1W        W43295  21.730  25.187   0.102  0.0223 -0.0739 -0.2305
    1W        W43296  16.183  15.855   0.550  0.0022  0.3981  0.0547
    1W        W43297   8.473   4.782   7.563  0.1443  0.0658 -0.2895
    1W        W43298  23.089  23.804   7.243  0.1266  0.0588 -0.2030
    1W        W43299   3.293  12.766   0.197  0.0778 -0.1585  0.0085
    1W        W43300  17.954  25.801   2.499 -0.0397 -0.1238 -0.0787
    1W        W43301   4.640  25.574   6.929  0.0836  0.0992 -0.0599
    1W        W43302   4.104  15.523   2.783 -0.2947 -0.0204  0.3064
    1W        W43303   4.840  29.089   1.145 -0.2299 -0.2850  0.1301
    1W        W43304   9.066  17.715   8.939  0.4902  0.0081  0.2388
    1W        W43305   4.299  14.855   0.525  0.0166 -0.1955 -0.1711
    1W        W43306   6.392  19.167   0.604  0.1946 -0.1088 -0.0258
    1W        W43307  27.654   1.919   2.857 -0.3011 -0.2409 -0.2870
    1W        W43308  19.561  16.672   7.223 -0.1004  0.1260 -0.0712
    1W        W43309  20.192   2.493   0.894  0.0965  0.2386 -0.0494
    1W        W43310  20.532  15.830   0.238 -0.1483 -0.1011  0.0343
    1W        W43311   5.783  27.979   1.016  0.0566 -0.1444 -0.0521
    1W        W43312   4.603   8.458   7.356  0.0201 -0.0395  0.0136
    1W        W43313  23.855  23.545   7.868  0.1368 -0.1210  0.1782
    1W        W43314  10.730   3.372   9.029 -0.0526  0.1925 -0.2335
    1W        W43315  12.108  23.690   8.965 -0.3277 -0.0057  0.0460
    1W        W43316   6.386  24.054   1.989  0.1730  0.3445 -0.1074
    1W        W43317   9.957   2.300   2.897  0.1484 -0.2404  0.2455
    1W        W43318  11.186  28.069   6.740  0.3020  0.0825 -0.2351
    1W        W43319  15.270  16.932   7.282  0.0893  0.1674 -0.1530
    1W        W43320  23.515   0.671   2.228  0.3375  0.1289  0.0633
    1W        W43321  29.035  19.745   7.752 -0.1567 -0.0194  0.0926
    1W        W43322  22.087  10.729   8.900  0.0374  0.1886  0.1680
    1W        W43323   5.794  11.263   7.267  0.3777  0.0392  0.1236
    1W        W43324  29.002  15.760   6.430 -0.2872  0.2049  0.0449
    1W        W43325  17.425   9.841   7.207 -0.4054 -0.1591  0.1450
    1W        W43326  25.751  16.064   7.213 -0.2080  0.0873 -0.0253
    1W        W43327  17.280   6.241   6.917 -0.1052  0.2329  0.1158
    1W        W43328   7.993  15.338   0.656 -0.1264 -0.0368 -0.1921
    1W        W43329  20.213  19.016   2.127 -0.0381  0.0476 -0.1247
    1W        W43330   0.264   6.883   7.064 -0.3111  0.3558 -0.0663
    1W        W43331  12.029   4.931   9.348  0.0952  0.2082  0.2374
    1W        W43332   2.751  24.485   7.904  0.0833 -0.0206  0.0419
    1W        W43333  26.383  16.605   8.682 -0.1833  0.0225 -0.1076
    1W        W43334  23.673  27.689   2.424  0.0006 -0.0253 -0.1760
    1W        W43335  20.982  23.162   3.003  0.0951 -0.0037  0.0998
    1W        W43336   1.690   1.975   7.257 -0.3175 -0.2077  0.0012
    1W        W43337   0.286  10.165   6.786 -0.0376 -0.4274 -0.0698
    1W        W43338  24.907   4.414   6.568 -0.2154  0.0997 -0.0934
    1W        W43339  16.899  24.310   0.832  0.1056  0.2029 -0.0534
    1W        W43340  22.410   8.111   1.574  0.2295  0.1099  0.1056
    1W        W43341   9.446  12.015   2.215  0.2526  0.2189 -0.2922
    1W        W43342   2.248   2.317   1.413 -0.2159 -0.1096 -0.0452
    1W        W43343   5.371  25.360   2.035  0.0596  0.0460  0.1369
    1W        W43344   2.268   7.380   2.031 -0.0460  0.1211 -0.0101
    1W        W43345   3.245   9.419   2.515  0.2430 -0.0926 -0.0835
    1W        W43346  10.303   9.331   3.159  0.3902 -0.0148 -0.0710
    1W        W43347  22.888  17.079   0.765  0.0098  0.2855  0.3795
    1W        W43348  29.484  16.510   1.627  0.3684 -0.0289 -0.0900
    1W        W43349   2.565   5.982   7.265 -0.2636 -0.1656  0.0556
    1W        W43350  11.607  18.857   8.580 -0.0206  0.1116 -0.1272
    1W        W43351  13.986  23.231   2.311 -0.4312  0.0198  0.0215
    1W        W43352   1.337   7.399   7.082 -0.2249 -0.0153  0.0693
    1W        W43353  11.626  27.398   9.164  0.0899  0.2436 -0.3366
    1W        W43354  11.927   5.171   0.922 -0.0295  0.0380  0.3781
    1W        W43355   9.702  20.943   1.953  0.1758 -0.0037 -0.0937
    1W        W43356  11.489   2.677   1.279  0.3403 -0.3417 -0.0721
    1W        W43357  17.310  18.888   8.001 -0.5011 -0.0104 -0.2646
    1W        W43358  13.364   7.759   8.116 -0.3917  0.0128 -0.0830
    1W        W43359  27.633  20.629   6.653 -0.1624 -0.2419 -0.0889
    1W        W43360  28.771  21.220   9.316  0.1049  0.1388  0.0632
    1W        W43361   0.194   4.913   1.338  0.1858 -0.1429  0.2721
    1W        W43362  15.265   5.120   1.269  0.1321  0.2587  0.2118
    1W        W43363  10.668   6.876   8.523  0.1698 -0.3773  0.2555
    1W        W43364  29.288   1.282   0.083  0.0188  0.1465 -0.2705
    1W        W43365   1.732  12.848   7.123 -0.2588 -0.0537 -0.2325
    1W        W43366   6.526   6.350   9.439 -0.0398 -0.2031  0.0974
    1W        W43367  16.518   0.589   2.207  0.1321 -0.1004  0.0570
    1W        W43368  23.644  23.969   1.191 -0.0331 -0.1675  0.4303
    1W        W43369  26.084  12.833   7.136  0.2260  0.1531 -0.0157
    1W        W43370   6.970  21.921   1.196 -0.1521  0.1777  0.0761
    1W        W43371   3.372  21.557   8.257 -0.3709 -0.1755 -0.1341
    1W        W43372  16.734   0.366   7.482  0.3482 -0.2202  0.0154
    1W        W43373   1.982  15.623   8.006 -0.0553  0.1986  0.2557
    1W        W43374  26.494   9.375   7.950  0.0031  0.2226  0.1940
    1W        W43375  25.865  24.133   7.743  0.1779  0.2239  0.0178
    1W        W43376  11.231  26.762   3.290  0.0320 -0.1386  0.0168
    1W        W43377  23.832   8.598   6.835 -0.0375 -0.1373  0.0333
    1W        W43378   2.334  13.530   0.944 -0.0512 -0.0030 -0.0282
    1W        W43379  20.241  28.387   3.228  0.1056  0.0202 -0.3660
    1W        W43380  26.713   0.157   0.190  0.0324  0.1294  0.0221
    1W        W43381   1.176  27.116   6.567  0.1127  0.1135  0.0270
    1W        W43382   9.203  22.521   1.166  0.1104  0.1655 -0.1079
    1W        W43383   0.958   0.746   9.415 -0.0431 -0.0634  0.1105
    1W        W43384   3.048  27.467   2.349 -0.1599 -0.0812 -0.0820
    1W        W43385   4.976  19.706   2.317  0.2165 -0.2092  0.0661
    1W        W43386   8.035  13.884   7.634  0.1148 -0.1489  0.2703
    1W        W43387  16.834  21.299   0.459  0.0648  0.0618  0.3971
    1W        W43388  22.989  23.711   2.035 -0.0990  0.0511 -0.0669
    1W        W43389  25.819   5.692   1.841 -0.0652  0.0749 -0.0571
    1W        W43390  19.373   2.371   1.412  0.3113  0.2283  0.0951
    1W        W43391  27.450  12.807   8.946 -0.0898  0.1989  0.2606
    1W        W43392   7.334  18.496   1.104 -0.0786 -0.0828  0.0593
    1W        W43393   0.235  27.165   3.083  0.0768  0.1872 -0.1547
    1W        W43394   1.191   7.339   2.723  0.3395 -0.0407  0.2868
    1W        W43395  19.860   3.519   3.208  0.0116 -0.1417 -0.1510
    1W        W43396   6.888   0.961   1.715 -0.0587 -0.1688 -0.2844
    1W        W43397  12.988  27.989   2.808  0.6300 -0.1247 -0.0541
    1W        W43398   6.209  28.278   8.350 -0.0792  0.2988  0.3874
    1W        W43399   8.156  15.049   1.052  0.2677 -0.0604 -0.1450
    1W        W43400  17.172  28.170   2.991 -0.2320  0.0226 -0.1794
    1W        W43401  14.864  24.779   7.077  0.1887  0.2198 -0.1404
    1W        W43402   6.539  18.237   2.292  0.1823 -0.3047 -0.4563
    1W        W43403   6.446  11.407   2.717 -0.2532  0.3043  0.0856
    1W        W43404   4.791  22.617   2.612 -0.0621  0.1188 -0.0402
    1W        W43405   8.637  23.965   8.322  0.2212 -0.2269  0.0839
    1W        W43406   2.688  15.008   7.266 -0.2252 -0.0241  0.0217
    1W        W43407  29.309   4.418   8.760  0.0833  0.2484  0.2002
    1W        W43408   5.034   1.194   8.069  0.0478  0.1995 -0.0748
    1W        W43409  25.772   6.660   0.650 -0.2606 -0.0140 -0.1355
    1W        W43410  17.795  29.239   0.577 -0.0989  0.0281 -0.1248
    1W        W43411  26.446  25.907   7.299  0.1421  0.1867  0.0866
    1W        W43412   0.152  18.289   0.257 -0.0333 -0.0662  0.0161
    1W        W43413   6.370   3.403   9.015 -0.0119 -0.1823 -0.0342
    1W        W43414   8.374  25.264   6.961 -0.0384 -0.1193 -0.1364
    1W        W43415  14.801  16.705   6.986  0.3757  0.0277 -0.0079
    1W        W43416   4.669   4.038   8.021 -0.1080  0.0324 -0.2581
    1W        W43417   8.241  10.394   7.510 -0.1555  0.1727  0.2195
    1W        W43418  14.873   0.225   8.381 -0.0747 -0.0849 -0.1192
    1W        W43419  23.264   5.378   8.782 -0.0456 -0.0287 -0.0886
    1W        W43420  28.645   6.480   3.040 -0.1828  0.1098  0.2235
    1W        W43421  11.488  29.253   1.304  0.0982 -0.2939 -0.2515
    1W        W43422   5.219  10.938   9.063 -0.0598  0.1173  0.2398
    1W        W43423   0.552  15.437   6.425 -0.1090 -0.1737  0.1070
    1W        W43424   0.363   0.086   2.878  0.2515  0.0861 -0.1256
    1W        W43425  14.499  26.884   9.094  0.1187  0.0954  0.1420
    1W        W43426  21.500   3.003   0.976 -0.0244  0.2763  0.2434
    1W        W43427   3.450  27.771   2.636 -0.2587  0.0007  0.3617
    1W        W43428  23.373  12.930   8.294  0.2580 -0.3693 -0.0362
    1W        W43429   7.375   7.730   1.761  0.2632  0.1904  0.0038
    1W        W43430  27.284   4.937   1.573  0.2136 -0.1454  0.0987
    1W        W43431  21.212   3.180   0.610 -0.1484 -0.2592 -0.1104
    1W        W43432   2.528   3.265   0.145 -0.0358  0.1145  0.0033
    1W        W43433  13.556   5.156   7.980 -0.0634 -0.0095 -0.3549
    1W        W43434   3.000  13.489   6.626  0.3049 -0.0705  0.0314
    1W        W43435   5.106  17.564   7.458  0.1008 -0.2811 -0.1277
    1W        W43436  24.044  23.149   8.819  0.0512 -0.2349  0.1590
    1W        W43437  20.815  19.300   0.629  0.0964 -0.4903  0.4159
    1W        W43438  10.944  21.456   1.292  0.3452 -0.1778  0.1162
    1W        W43439   3.616  23.041   9.318  0.0413 -0.0322  0.0475
    1W        W43440  21.711   7.503   1.823  0.0622 -0.2469  0.0831
    1W        W43441  15.945  16.962   1.559  0.3156 -0.1594 -0.0975
    1W        W43442  17.688  25.481   8.844  0.0590 -0.4166  0.0860
    1W        W43443  29.489  15.662   0.517  0.0727  0.3114  0.1541
    1W        W43444  18.970  22.427   2.249  0.0951 -0.0915  0.1606
    1W        W43445   8.662  26.882   0.268  0.1744 -0.1735 -0.0196
    1W        W43446  29.245   3.677   2.067 -0.0797  0.0310  0.0781
    1W        W43447  22.987   8.485   7.912  0.2296 -0.1789 -0.0929
    1W        W43448   7.852  25.669   8.144 -0.0121  0.1712  0.0808
    1W        W43449  13.659  10.588   7.354  0.0193 -0.2388  0.0429
    1W        W43450  27.529  27.868   1.032 -0.0518 -0.1448 -0.0052
    1W        W43451   4.842   5.468   2.232  0.2183 -0.1414  0.1244
    1W        W43452  11.362  23.717   0.508 -0.1021  0.0781 -0.2033
    1W        W43453   8.002   9.101   0.325  0.0396  0.0987 -0.1599
    1W        W43454   0.404  12.434   6.626 -0.1074  0.4203 -0.0150
    1W        W43455  27.242  18.167   8.632  0.0352  0.2697  0.1212
    1W        W43456  22.168  16.871   7.093  0.0870  0.2721  0.3001
    1W        W43457   6.599  12.755   2.477 -0.1838  0.2011 -0.0858
    1W        W43458  12.056  15.639   0.513 -0.0854  0.0978  0.0092
    1W        W43459  17.374   1.912   7.685 -0.2692 -0.2538 -0.3942
    1W        W43460  26.453   4.188   1.183 -0.4217 -0.4074  0.0994
    1W        W43461   2.715  26.291   6.463 -0.0388 -0.0048 -0.2469
    1W        W43462  10.923  22.494   7.537  0.1088  0.1228 -0.3832
    1W        W43463  10.308  14.166   0.924  0.2793 -0.0695 -0.1030
    1W        W43464   7.479  17.539   2.170  0.1370 -0.1477  0.1216
    1W        W43465  19.947   1.330   3.539  0.1345  0.2156  0.1236
    1W        W43466  26.687  29.374   1.042 -0.1074 -0.1160  0.3605
    1W        W43467  25.734  20.962   2.178 -0.2416  0.0644 -0.0540
    1W        W43468  20.411   8.710   0.424 -0.4828  0.0483  0.2426
    1W        W43469   5.188   3.980   7.824  0.0437  0.1886 -0.2017
    1W        W43470  15.781  22.939   6.511 -0.0970 -0.2422 -0.0652
    1W        W43471  15.452  26.083   0.174  0.0648  0.3455  0.1167
    1W        W43472  25.844  10.922   1.628 -0.1621  0.0948 -0.1421
    1W        W43473  19.553  23.534   1.090  0.3112  0.0357 -0.0466
    1W        W43474  27.852  25.644   2.553  0.0608 -0.0560 -0.0114
    1W        W43475   6.777  12.646   9.379 -0.1352 -0.3229  0.4141
    1W        W43476  11.196   3.085   0.187  0.0476 -0.3469  0.0564
    1W        W43477  23.040   0.700   2.453  0.2887 -0.0259 -0.3533
    1W        W43478   2.038  16.842   1.828 -0.0405  0.3742  0.1895
    1W        W43479   3.427  15.392   9.117 -0.0193  0.1003 -0.1206
    1W        W43480  11.323  28.115   2.765 -0.0686 -0.1335  0.0231
    1W        W43481  27.871   4.709   8.309 -0.0742 -0.0591  0.1831
    1W        W43482   2.991  25.463   6.717 -0.1482  0.2055 -0.1073
    1W        W43483   6.737  25.247   6.230 -0.1540  0.0668  0.0104
    1W        W43484  27.026   9.885   0.808 -0.0992 -0.0102 -0.1484
    1W        W43485  28.930  25.180   2.586  0.1373 -0.0820 -0.0866
    1W        W43486  23.699  28.431   8.119  0.0807  0.1161  0.0497
    1W        W43487  19.668  16.094   1.105 -0.1027 -0.0817  0.2273
    1W        W43488   4.009  24.555   6.882 -0.1262  0.2538  0.2381
    1W        W43489  13.691  21.322   8.206 -0.0631  0.4384 -0.1443
    1W        W43490  10.748  15.718   7.887 -0.0668  0.1586 -0.2013
    1W        W43491  28.497  22.624   0.772  0.2616 -0.0629  0.0776
    1W        W43492  21.091  26.322   8.102 -0.1785  0.1086  0.0922
    1W        W43493  12.794  24.171   7.947  0.0148 -0.0644  0.0737
    1W        W43494  18.031  15.817   1.185  0.0661 -0.0592  0.0056
    1W        W43495  12.118  11.680   8.696  0.1417 -0.2331 -0.0051
    1W        W43496  14.688  23.035   2.584  0.0867 -0.0729  0.0015
    1W        W43497  25.206  12.741   8.129 -0.1063  0.0414  0.1704
    1W        W43498   5.794   9.094   8.887  0.0241 -0.0786  0.1565
    1W        W43499   4.311   3.849   7.153  0.0271  0.3939 -0.1049
    1W        W43500   9.625  17.352   7.558 -0.0711  0.1088  0.1916
    1W        W43501   2.754  26.318   8.059  0.0320 -0.2193 -0.0726
    1W        W43502   2.406  29.266   2.661 -0.1138  0.1062  0.1141
    1W        W43503  24.222  12.311   9.354 -0.2262 -0.1396  0.0998
    1W        W43504   0.108  18.065   8.758 -0.1823 -0.2968 -0.1295
    1W        W43505   3.560  10.013   6.332 -0.1163 -0.0258 -0.0661
    1W        W43506  17.558  18.304   1.199  0.0205  0.0171  0.0877
    1W        W43507  12.187  29.525   1.366  0.1265 -0.1394  0.2451
    1W        W43508  18.618  24.744   2.022  0.0158 -0.3402  0.1073
    1W        W43509  15.996  16.899   2.165  0.3357 -0.2547 -0.1256
    1W        W43510  14.842   7.297   7.329 -0.0767  0.0300  0.1787
    1W        W43511   5.748   3.080   7.592 -0.0903  0.1285  0.0396
    1W        W43512  19.167  28.855   3.306  0.0978  0.1198 -0.0638
    1W        W43513  25.499   3.435   8.918 -0.1412  0.0198  0.1092
    1W        W43514   7.727   2.151   7.464  0.0109  0.0555  0.0609
    1W        W43515   5.854   4.266   2.969 -0.0693  0.1135  0.3717
    1W        W43516   7.144  11.905   7.477  0.0354  0.3496  0.1433
    1W        W43517   5.629  12.922   0.999 -0.3691  0.1975 -0.0551
    1W        W43518  16.572  24.599   1.578 -0.1176  0.0515 -0.1114
    1W        W43519  25.209  25.575   9.009  0.0962  0.0513  0.1379
    1W        W43520  29.326  27.249   2.586 -0.0198  0.0541 -0.0447
    1W        W43521  14.135  28.768   2.013 -0.1942 -0.2876  0.0859
    1W        W43522  21.480   1.160   2.864  0.0830 -0.2846  0.1154
    1W        W43523  15.053  27.965   1.464  0.2261  0.0522  0.1131
    1W        W43524   4.044   9.486   1.448 -0.0221  0.0147  0.0992
    1W        W43525  12.196  28.272   1.398  0.0652 -0.3290  0.2837
    1W        W43526   8.047   4.024   2.433  0.0529 -0.3420  0.0730
    1W        W43527  25.386  20.913   8.997 -0.1715 -0.0064  0.2851
    1W        W43528  27.795  25.752   1.051 -0.1543  0.3218  0.2388
    1W        W43529  21.513  21.635   2.199 -0.2355 -0.2964 -0.0444
    1W        W43530   7.365  19.921   7.824 -0.0289  0.0175 -0.1582
    1W        W43531  17.813   0.735   1.487 -0.1979 -0.4470  0.0289
    1W        W43532  15.187   6.007   7.378 -0.1981 -0.1344 -0.4025
    1W        W43533  18.280  19.656   2.194 -0.0732 -0.2791  0.1341
    1W        W43534   1.677  23.684   8.870  0.0473 -0.0399  0.1627
    1W        W43535   9.213  23.611   7.112 -0.4624 -0.4119 -0.0337
    1W        W43536  22.633  16.995   0.009 -0.1124 -0.0485  0.1516
    1W        W43537  26.482  21.527   6.233  0.0315  0.3365  0.0812
    1W        W43538  29.140   7.667   8.501  0.3038  0.1345 -0.1690
    1W        W43539  13.577   5.008   2.529  0.4441 -0.4070  0.1697
    1W        W43540  19.487  24.708   7.593 -0.3367  0.3878 -0.2718
    1W        W43541   0.674   5.258   7.960 -0.0856  0.1337  0.0846
    1W        W43542   0.956  10.879   0.533 -0.0735 -0.0527 -0.1030
    1W        W43543  17.292  12.318   8.036 -0.2574  0.0254  0.3204
    1W        W43544   0.080  26.022   1.599  0.0339  0.0550  0.0850
    1W        W43545  16.936   7.606   6.955  0.0234  0.2700 -0.2787
    1W        W43546   2.634  27.481   8.845 -0.2207  0.0184 -0.2272
    1W        W43547   4.456   3.017   8.095  0.4079  0.0620  0.3300
    1W        W43548  22.051  18.534   0.409 -0.3279 -0.2314 -0.1942
    1W        W43549  23.159   6.147   2.284  0.0798  0.1880  0.0077
    1W        W43550   3.444  18.672   0.834  0.0587  0.4165  0.1220
    1W        W43551  29.013   5.177   7.936  0.0453 -0.1233  0.3336
    1W        W43552  20.716  20.250   1.334  0.2426 -0.0707 -0.1472
    1W        W43553   5.932  15.736   1.173  0.0211 -0.0708 -0.3705
    1W        W43554  21.628  19.845   8.544 -0.0192 -0.2009 -0.3509
    1W        W43555  11.414   6.218   7.727 -0.2809 -0.0130  0.0021
    1W        W43556  12.969   4.168   2.286 -0.1196 -0.1289  0.1502
    1W        W43557   6.407  22.662   1.061 -0.0611 -0.0403  0.3129
    1W        W43558   1.287   1.176   8.857  0.3756  0.1553  0.0015
    1W        W43559   1.591  20.339   6.273  0.0753  0.0259 -0.0182
    1W        W43560  11.433   4.474   0.852 -0.0231  0.1104  0.3555
    1W        W43561  26.662   1.999   0.041  0.2373  0.2389  0.0852
    1W        W43562  10.481  25.513   6.915  0.3440 -0.0777 -0.0194
    1W        W43563  21.331   7.920   1.896 -0.2229 -0.2348  0.0808
    1W        W43564  26.459  27.887   8.852 -0.2121 -0.1600 -0.1508
    1W        W43565  19.563   1.050   8.160  0.1727  0.0433 -0.2339
    1W        W43566   8.448  26.557   0.575  0.0964 -0.0295  0.0245
    1W        W43567   8.123   8.181   1.701 -0.2164  0.4371  0.0213
    1W        W43568  16.705  18.628   0.929 -0.0008  0.1252 -0.1134
    1W        W43569  10.809   2.577   2.852 -0.0696  0.4237  0.0621
    1W        W43570   0.038   3.430   8.843  0.2430 -0.1575 -0.2387
    1W        W43571  29.334  28.102   1.983 -0.1903  0.0076  0.2790
    1W        W43572   1.312  24.256   6.515  0.1689 -0.2688  0.1516
    1W        W43573   9.115  19.834   7.457 -0.2834  0.4149 -0.1368
    1W        W43574  11.746  23.003   9.438 -0.2437  0.3516 -0.1957
    1W        W43575  27.364  11.543   6.281  0.0658 -0.2008 -0.1015
    1W        W43576  24.315   9.255   7.505  0.1276 -0.0364  0.0567
    1W        W43577  18.855  29.048   2.487  0.1743  0.0498 -0.0063
    1W        W43578  25.593  19.225   2.568  0.0200  0.2378 -0.0827
    1W        W43579  10.442   3.703   9.386  0.4676 -0.2788 -0.3882
    1W        W43580   0.457  28.910   8.571  0.1114 -0.3285 -0.0032
    1W        W43581  17.031   5.265   6.924 -0.2553 -0.0427  0.1151
    1W        W43582  27.854  23.571   1.599  0.0964 -0.1510 -0.0762
    1W        W43583  15.112  18.002   0.877  0.0704 -0.2728 -0.1094
    1W        W43584   3.688   3.573   9.101  0.1034  0.2819 -0.1909
    1W        W43585   8.930  24.643   2.216  0.4697 -0.1358  0.0793
    1W        W43586   2.024   2.464   2.872 -0.0120  0.1393 -0.1624
    1W        W43587   7.976  11.103   2.783  0.1246  0.1243  0.1970
    1W        W43588  17.665  19.921   7.585 -0.1061 -0.2784 -0.2331
    1W        W43589   5.512  17.940   0.229  0.1100  0.1241 -0.0045
    1W        W43590  11.986   5.932   8.569  0.2471  0.2074 -0.2496
    1W        W43591   9.608  12.341   9.070 -0.0656  0.1930  0.1308
    1W        W43592  10.316  25.638   9.414  0.2567 -0.4232 -0.0149
    1W        W43593   5.623  14.042   7.581  0.0998 -0.0249  0.4753
    1W        W43594  16.659  10.266   1.438 -0.0255  0.1943  0.1905
    1W        W43595   7.322  12.525   1.197 -0.0965 -0.1700 -0.0002
    1W        W43596  17.226  15.434   9.408  0.1129  0.1513  0.0223
    1W        W43597  12.043  26.968   6.339 -0.0456 -0.1825 -0.3394
    1W        W43598   1.997  19.138   7.031 -0.1185  0.0416  0.1870
    1W        W43599  28.277   1.072   7.651 -0.0507  0.0455  0.0563
    1W        W43600  23.962   0.652   1.959  0.2423 -0.2107 -0.2544
    1W        W43601  12.898  12.117   9.011  0.1955  0.0724 -0.2944
    1W        W43602   7.256  29.609   0.014  0.0528 -0.0192 -0.1682
    1W        W43603  25.396   0.668   7.981  0.1908  0.1411  0.1161
    1W        W43604  22.539  10.134   1.362  0.1569 -0.1582  0.0931
    1W        W43605  18.459   0.936   9.382 -0.0006 -0.1908 -0.1912
    1W        W43606  18.611  27.488   8.643  0.3581 -0.1856 -0.2440
    1W        W43607  19.553  11.057   0.732  0.2254  0.1416  0.0430
    1W        W43608  24.518   4.575   8.933  0.0013 -0.0019  0.1258
    1W        W43609  21.745  16.724   8.110  0.1103  0.0809 -0.0629
    1W        W43610  26.701   8.245   0.209  0.0130 -0.0563 -0.3510
    1W        W43611  24.050   0.686   8.176  0.0330 -0.2579 -0.0439
    1W        W43612   7.430   3.889   7.920  0.0578  0.4848 -0.0428
    1W        W43613   0.132  14.605   0.718  0.1011  0.4292  0.0503
    1W        W43614  14.197  10.253   0.055 -0.0180 -0.0891 -0.1086
    1W        W43615   7.587  29.250   6.959  0.2027 -0.1083 -0.3971
    1W        W43616   4.457  13.003   8.949  0.1034 -0.2520  0.1225
    1W        W43617  18.357  28.892   2.486  0.2641 -0.0055  0.0173
    1W        W43618   5.798   3.840   0.588  0.1583 -0.1642  0.0933
    1W        W43619   6.362   4.218   9.287 -0.1158  0.1995 -0.2580
    1W        W43620  29.013  16.690   6.971 -0.1191  0.0491  0.0075
    1W        W43621   4.745   7.514   8.944  0.5219  0.0336 -0.0495
    1W        W43622   6.946  25.467   7.105 -0.0479  0.1196 -0.0035
    1W        W43623  11.094  14.320   2.200 -0.2354  0.1696  0.1004
    1W        W43624   9.239  24.240   0.665 -0.2863  0.0162  0.2793
    1W        W43625  28.736   1.651   9.138  0.1475  0.3016  0.0482
    1W        W43626   5.542  29.072   7.290  0.1104 -0.0393 -0.0553
    1W        W43627  16.624  14.376   7.789 -0.0250 -0.3312  0.2473
    1W        W43628  16.057  23.520   9.158  0.2419  0.1623  0.0568
    1W        W43629   8.857  10.165   0.463  0.0596  0.3278  0.0755
    1W        W43630  16.800   3.902   7.445 -0.1326  0.1218 -0.1094
    1W        W43631  13.024  24.096   1.223 -0.1145 -0.1063  0.2808
    1W        W43632   3.192   6.707   0.998  0.0192  0.1383 -0.1876
    1W        W43633   6.674  20.316   7.010 -0.0710  0.2695  0.1526
    1W        W43634  20.779   4.345   7.308 -0.3545 -0.2146  0.1695
    1W        W43635  14.615  22.646   7.885  0.0442 -0.2690  0.2386
    1W        W43636  13.897   8.220   1.797 -0.1109  0.1698  0.0362
    1W        W43637  23.076  13.334   8.886  0.0215  0.1471 -0.2227
    1W        W43638  24.529  25.325   0.743 -0.2832 -0.0258  0.1853
    1W        W43639  13.722  25.730   1.155  0.2159 -0.2391 -0.1421
    1W        W43640  25.873  22.900   9.064 -0.0101  0.1629  0.1401
    1W        W43641  26.601   0.236   7.098 -0.1604 -0.1899 -0.1814
    1W        W43642  23.728  27.827   1.180  0.2444  0.1203  0.3225
    1W        W43643   5.476  15.878   6.588  0.1582 -0.0679  0.0808
    1W        W43644   4.557  23.419   6.482 -0.0454 -0.1933 -0.1842
    1W        W43645  18.082  23.462   0.576  0.2182 -0.4152 -0.0125
    1W        W43646  21.480  15.115   1.609  0.1008 -0.0953  0.1555
    1W        W43647  24.519  25.063   2.775  0.2305 -0.2915  0.1072
    1W        W43648  24.070  22.265   1.933  0.0151  0.1075  0.1713
    1W        W43649   5.927   0.986   1.739  0.3162 -0.1688  0.0960
    1W        W43650  13.122  25.948   2.077  0.0191  0.4453  0.2337
    1W        W43651  19.294  14.191   8.351  0.3688  0.0064 -0.5053
    1W        W43652  18.914  23.415   2.459 -0.0898 -0.0541 -0.1562
    1W        W43653   2.369  21.405   8.989 -0.1534  0.0355  0.5391
    1W        W43654   3.623  16.174   2.431  0.2182 -0.2600  0.0142
    1W        W43655   4.455  27.080   6.477  0.1114 -0.0885  0.1314
    1W        W43656  23.971   6.749   1.372  0.0223 -0.1107 -0.3781
    1W        W43657  10.243  11.288   9.301  0.0284 -0.0336  0.0926
    1W        W43658  26.181  23.443   0.702  0.2018 -0.1866 -0.3038
    1W        W43659  22.927   9.581   1.676  0.0401 -0.1989 -0.0495
    1W        W43660   7.204  15.412   6.332 -0.0606 -0.1010  0.1207
    1W        W43661   6.788  21.305   6.400  0.1971 -0.1852  0.1950
    1W        W43662  10.534  23.623   6.305 -0.0611  0.1508  0.3033
    1W        W43663   2.673  16.173   7.514  0.0323  0.0273  0.0566
    1W        W43664  24.657  10.871   9.198  0.0008  0.1927  0.0823
    1W        W43665  24.282  19.934   9.458  0.0431 -0.1747 -0.0360
    1W        W43666  12.060  15.400   1.541 -0.1795 -0.1293  0.1071
    1W        W43667  13.958   6.807   1.851 -0.0384 -0.0533  0.1055
    1W        W43668  11.083   8.829   7.456  0.0703  0.3031 -0.2726
    1W        W43669  26.470  28.440   2.238  0.0120  0.0379 -0.1688
    1W        W43670  13.370   4.577   9.265  0.0750  0.0324 -0.2485
    1W        W43671  12.380  13.165   6.901  0.1578  0.3880  0.2466
    1W        W43672  26.168  27.837   1.638  0.0159 -0.0162 -0.2365
    1W        W43673  19.820  14.757   1.146  0.4199  0.1588  0.0487
    1W        W43674  14.767   8.267   8.283 -0.2206 -0.1295  0.0068
    1W        W43675  18.033   6.334   1.699 -0.3750 -0.1597 -0.3103
    1W        W43676  29.772  22.533   1.327  0.0416 -0.1460  0.0998
    1W        W43677  20.049  17.814   8.353 -0.1191 -0.2725 -0.1653
    1W        W43678  16.035  14.650   0.095  0.0489  0.3864 -0.0249
    1W        W43679  18.419  19.422   7.876 -0.5067 -0.1983  0.1307
    1W        W43680  14.795  10.008   7.663  0.1841  0.1303 -0.2175
    1W        W43681  13.309   5.801   0.056  0.0015  0.0771 -0.0620
    1W        W43682   9.502  27.213   7.566 -0.2700 -0.0843  0.3249
    1W        W43683  12.993   2.977   1.998  0.1607  0.0405 -0.1846
    1W        W43684  28.654  22.466   6.798 -0.2674  0.0901  0.2823
    1W        W43685  23.520   7.990   2.444 -0.0660  0.3603  0.0083
    1W        W43686   1.823  13.277   1.050 -0.0527 -0.0171  0.0408
    1W        W43687  27.540  17.100   6.702 -0.1391 -0.1553 -0.0987
    1W        W43688  28.552  27.180   2.151 -0.0963 -0.1962  0.0645
    1W        W43689  21.743   0.305   1.801  0.0220  0.2231 -0.0377
    1W        W43690  15.774  19.203   0.741 -0.0629 -0.3966 -0.0166
    1W        W43691  23.523  20.638   0.101  0.1423  0.1994  0.4616
    1W        W43692   0.088  19.975   0.565  0.2417  0.0602 -0.0644
    1W        W43693   2.293  21.109   0.312 -0.3448  0.1544  0.1247
    1W        W43694   6.853  16.505   2.010  0.2602 -0.1409  0.0514
    1W        W43695   8.165  17.032   2.731  0.2264  0.3342  0.0140
    1W        W43696  19.585   7.186   1.849  0.0979 -0.0355  0.0941
    1W        W43697   9.856  15.577   2.009 -0.3188  0.0027 -0.1742
    1W        W43698   2.603   8.571   2.975  0.1559  0.0960 -0.2386
    1W        W43699   6.929   7.844   2.111  0.0422  0.0653  0.2002
    1W        W43700   2.132  12.358   8.365  0.0905  0.0354 -0.2503
    1W        W43701  29.299  27.646   1.691  0.1357 -0.0302 -0.1501
    1W        W43702  27.383   6.438   8.542 -0.1402  0.3163  0.1641
    1W        W43703  20.577  23.185   0.930  0.3605  0.2056 -0.0366
    1W        W43704  20.258   2.504   6.825  0.0085  0.0549 -0.3179
    1W        W43705  23.845   6.547   2.814  0.2306 -0.0946 -0.1301
    1W        W43706  18.270  27.088   7.606 -0.1676  0.1952  0.4285
    1W        W43707  29.710  13.955   0.064 -0.0632  0.0714 -0.0790
    1W        W43708  25.327  20.757   1.053  0.5244  0.1509 -0.0708
    1W        W43709  27.898  24.939   2.130 -0.2427 -0.0782  0.0873
    1W        W43710  25.867  28.232   7.472 -0.1596 -0.0046 -0.1343
    1W        W43711   3.488   4.999   2.774 -0.2547 -0.0422 -0.0483
    1W        W43712  19.196  13.031   6.809  0.1057 -0.3942 -0.0719
    1W        W43713  21.306  16.858   2.008  0.1163 -0.0687 -0.0512
    1W        W43714  17.126  13.434   7.690 -0.0942  0.2997 -0.1792
    1W        W43715  17.167   0.599   1.713  0.0405 -0.0181  0.1105
    1W        W43716  10.160  19.393   1.296 -0.1314 -0.2209 -0.0371
    1W        W43717  29.820  24.238   6.023  0.0370 -0.1332 -0.0705
    1W        W43718  28.669  20.481   6.859 -0.0247  0.1539 -0.1491
    1W        W43719   3.121  12.072   8.340  0.1687 -0.0067  0.2550
    1W        W43720  19.125   4.730   8.898 -0.1812  0.0060  0.2460
    1W        W43721   9.468   0.195   2.710 -0.0325  0.1860  0.5374
    1W        W43722  18.632  15.460   9.441  0.4850  0.1300 -0.0899
    1W        W43723  29.796   1.540   6.823 -0.2668  0.0714  0.0399
    1W        W43724   3.898  13.839   0.706 -0.0109  0.1401  0.1625
    1W        W43725  18.478  28.675   6.889 -0.0501  0.0763  0.2838
    1W        W43726  22.797   1.982   8.483  0.0500  0.1836 -0.1665
    1W        W43727   0.027  23.531   1.831 -0.1848  0.0290 -0.1856
    1W        W43728  12.815   1.083   6.802  0.3348 -0.0553 -0.4258
    1W        W43729  11.939  10.477   2.013 -0.2437  0.1571  0.1432
    1W        W43730  27.945   0.997   0.790  0.3607 -0.2311  0.2197
    1W        W43731  21.954   3.836   0.159 -0.1425 -0.0613 -0.0462
    1W        W43732  28.833  22.693   1.290 -0.4323 -0.0117 -0.1869
    1W        W43733   2.893  11.670   7.355  0.0790 -0.0715 -0.3930
    1W        W43734  22.217  22.394   1.235 -0.0895  0.1462 -0.3332
    1W        W43735  29.751  11.956   1.369  0.2572  0.1062  0.0981
    1W        W43736  18.800  18.657   8.075 -0.0810  0.2006 -0.3469
    1W        W43737  23.243   3.623   9.258  0.0237  0.0319 -0.0848
    1W        W43738  11.677  14.326   8.312 -0.3338 -0.1983 -0.0163
    1W        W43739   6.827  24.623   0.331 -0.1670  0.0290 -0.2471
    1W        W43740  29.057   8.213   0.827  0.1696 -0.1072  0.0674
    1W        W43741   5.733  13.539   2.210  0.0231  0.1114  0.2987
    1W        W43742   7.407  19.727   1.714  0.0307 -0.1429  0.1032
    1W        W43743  18.795   2.305   0.091 -0.1327  0.0394 -0.2305
    1W        W43744  22.041  18.461   7.551  0.1187 -0.3002 -0.1475
    1W        W43745  22.058   7.716   0.479 -0.1007 -0.1600 -0.0189
    1W        W43746  23.882  16.748   8.676  0.1322 -0.0215 -0.1128
    1W        W43747  21.209   3.792   1.978  0.1417  0.2621  0.2212
    1W        W43748  12.185  24.657   6.862  0.0008  0.0034 -0.1009
    1W        W43749  27.811   9.300   8.639 -0.1524 -0.3306  0.2979
    1W        W43750  18.573   8.654   7.182  0.0822  0.2562  0.1410
    1W        W43751   6.134  24.791   9.284  0.1017  0.1580 -0.1786
    1W        W43752  14.373  24.388   2.433  0.2443 -0.2506  0.2207
    1W        W43753  19.693  23.867   7.496 -0.1727 -0.2720  0.1685
    1W        W43754  20.105   7.755   0.500 -0.1499 -0.0748 -0.2346
    1W        W43755   9.435  21.402   9.359 -0.0852 -0.1993 -0.0464
    1W        W43756   3.864  27.550   2.554 -0.0478  0.2706 -0.2132
    1W        W43757  25.814  22.047   2.564 -0.1877 -0.1201  0.1638
    1W        W43758  22.299   8.608   2.435  0.0967 -0.0370  0.0320
    1W        W43759  14.724  20.362   8.874  0.2854 -0.3151  0.2319
    1W        W43760  17.793   8.219   8.546  0.1151 -0.1733  0.0812
    1W        W43761  19.193  18.112   7.570  0.2236 -0.1799  0.2690
    1W        W43762  27.230  11.451   7.590 -0.0362 -0.0704 -0.1153
    1W        W43763   2.225  24.445   9.080 -0.3075 -0.1120 -0.0735
    1W        W43764   9.838   0.051   8.297 -0.0101  0.1740 -0.0030
    1W        W43765  11.502  27.149   2.174 -0.1467 -0.0317  0.0193
    1W        W43766  21.424  24.639   2.012  0.0980  0.0874  0.1299
    1W        W43767  20.125  10.022   6.040  0.0989 -0.0446 -0.0918
    1W        W43768   5.800  22.556   2.169  0.0463 -0.0267 -0.0192
    1W        W43769  12.565   8.679   1.222  0.1525  0.3809 -0.0624
    1W        W43770   6.364  26.027   8.270  0.0434 -0.1633  0.1015
    1W        W43771  19.797  20.941   2.199 -0.0874 -0.3562 -0.3402
    1W        W43772   1.988   6.753   1.988 -0.2343 -0.2101 -0.1342
    1W        W43773  26.356  22.281   0.110  0.0094  0.0641  0.0248
    1W        W43774   6.550   4.894   2.749  0.1282  0.1384  0.0094
    1W        W43775  26.902  26.130   6.647 -0.2745  0.2642 -0.1047
    1W        W43776  19.049   8.027   8.943 -0.2497 -0.1399  0.0229
    1W        W43777  27.245  16.095   7.263  0.1395 -0.2558  0.1849
    1W        W43778   8.662  11.715   0.549  0.1439 -0.1240 -0.0627
    1W        W43779  24.257  19.197   1.977  0.3301 -0.0002 -0.1158
    1W        W43780  12.456   3.153   9.443  0.0428  0.0700 -0.0986
    1W        W43781  18.547  24.795   6.641 -0.2370 -0.0747  0.0218
    1W        W43782  11.240  15.653   8.085  0.0623 -0.0065 -0.1835
    1W        W43783  23.129  29.650   8.169  0.1977 -0.0576  0.0245
    1W        W43784   9.167  10.755   3.314  0.1158 -0.1768 -0.0341
    1W        W43785   8.381  18.697   6.325 -0.0969  0.1401 -0.1791
    1W        W43786   6.905  18.798   9.236 -0.0360 -0.0756  0.0815
    1W        W43787  15.137   3.177   7.078  0.2088 -0.1943 -0.1958
    1W        W43788   5.070   2.720   1.570  0.2330 -0.1334  0.0074
    1W        W43789  27.232   8.784   7.020 -0.0874  0.1631 -0.1489
    1W        W43790  15.958  22.408   8.522  0.0651  0.1032  0.1209
    1W        W43791  29.324  29.670   7.353 -0.0928  0.1767 -0.0458
    1W        W43792   7.431   7.576   8.161 -0.1730  0.0957  0.0522
    1W        W43793  29.204  21.559   8.477 -0.2032  0.2336  0.0500
    1W        W43794  24.407  10.492   2.420 -0.1343 -0.0464 -0.0952
    1W        W43795   8.365  25.508   1.851 -0.1421  0.0458  0.0106
    1W        W43796  25.391  14.024   0.031  0.0300 -0.4168  0.0095
    1W        W43797  13.167  17.782   8.652  0.1615  0.3504 -0.3065
    1W        W43798   1.531  11.827   6.414  0.2857 -0.0090 -0.1197
    1W        W43799  15.405   8.796   1.953  0.3091  0.1618  0.0072
    1W        W43800  21.606   2.302   0.437  0.0966 -0.1872  0.0545
    1W        W43801  17.755   2.233   7.713  0.2854  0.0906  0.0430
    1W        W43802  25.519  27.382   8.052  0.0408  0.2507  0.0298
    1W        W43803  12.965  29.098   9.095  0.0219 -0.2886 -0.1857
    1W        W43804   3.944  29.737   1.711 -0.1393  0.0348  0.1403
    1W        W43805  20.266  23.452   8.092  0.0429  0.2273  0.1142
    1W        W43806  17.072  18.013   8.145  0.0207  0.1120  0.1491
    1W        W43807  17.265  16.279   1.459  0.1155  0.2753 -0.3171
    1W        W43808   1.000  14.410   0.959 -0.2087  0.0179 -0.0328
    1W        W43809  26.696  20.403   8.561 -0.0887 -0.1901 -0.1782
    1W        W43810   4.205   9.246   7.034 -0.0996  0.0029 -0.0643
    1W        W43811   1.572  15.609   5.307 -0.0212  0.2439  0.0908
    1W        W43812  12.210  28.146   0.078 -0.1273 -0.0808 -0.0888
    1W        W43813  23.451   2.815   1.075  0.0001  0.0602 -0.0505
    1W        W43814   2.647  23.287   7.553 -0.0206  0.0630 -0.2141
    1W        W43815  24.837  28.611   6.431 -0.1207 -0.0843  0.0162
    1W        W43816  19.364   5.420   2.398  0.2755 -0.0159 -0.0182
    1W        W43817  25.127  18.099   1.707 -0.1361  0.0317  0.1822
    1W        W43818  10.961   2.937   9.178  0.1876 -0.1769  0.0214
    1W        W43819  29.368  13.114   2.128 -0.0798  0.1035  0.2575
    1W        W43820  22.620  25.607   8.077 -0.0228  0.0882 -0.0739
    1W        W43821  14.456  26.902   7.673 -0.0175  0.1483  0.1645
    1W        W43822  19.523   3.387   0.351  0.0659  0.3431 -0.2330
    1W        W43823  20.090   1.099   1.443  0.1538  0.0566  0.1339
    1W        W43824  19.239  22.644   9.072 -0.2275 -0.4129  0.4806
    1W        W43825  21.066   2.619   6.964  0.2340 -0.3054  0.1925
    1W        W43826  14.001  10.408   1.536  0.1100 -0.0574  0.0760
    1W        W43827  29.249  10.420   8.321  0.0926  0.0232 -0.0322
    1W        W43828  13.518  13.138   1.899 -0.0745  0.1464 -0.1603
    1W        W43829  13.099  28.628   9.115  0.1145 -0.1394  0.2225
    1W        W43830  22.480   8.207   6.433 -0.1740  0.0699 -0.1808
    1W        W43831   5.265  12.097   1.194 -0.0187 -0.1879 -0.1819
    1W        W43832   5.247   5.164   1.545  0.1126 -0.0484  0.0571
    1W        W43833   9.306  10.871   1.586 -0.0259 -0.0322  0.1491
    1W        W43834  11.144  13.093   8.123 -0.0758  0.0547  0.2292
    1W        W43835  24.001  18.083   0.190 -0.1472 -0.0062  0.0188
    1W        W43836  18.041   6.931   8.584  0.0557 -0.1106  0.1440
    1W        W43837  17.155  26.439   3.321  0.1921 -0.0139 -0.2035
    1W        W43838  26.482   9.371   7.466 -0.2128 -0.0090  0.0369
    1W        W43839  14.377  23.215   6.807  0.1892 -0.1118  0.0538
    1W        W43840  11.122   8.166   7.978 -0.0112  0.2318  0.1059
    1W        W43841   4.697   5.165   1.344  0.0571 -0.1035  0.0836
    1W        W43842  24.686   8.461   8.961 -0.1251  0.0212  0.0895
    1W        W43843  14.176  10.035   9.064 -0.0056 -0.1254  0.0263
    1W        W43844  14.620   1.244   7.590 -0.0422  0.0066 -0.0610
    1W        W43845  18.090   3.316   2.577  0.1547 -0.0809  0.2500
    1W        W43846  13.065   5.519   8.019 -0.0163 -0.0883  0.0564
    1W        W43847  28.922  15.473   6.884 -0.0915 -0.2490  0.0166
    1W        W43848  17.318  23.028   8.459 -0.0658  0.0516 -0.1176
    1W        W43849  17.782  15.558   1.706 -0.2030  0.0076 -0.1991
    1W        W43850  10.050  11.804   0.581 -0.0687 -0.0571  0.3729
    1W        W43851  26.275  15.219   1.055  0.1574 -0.0355  0.3127
    1W        W43852   7.115  15.683   7.100  0.0685  0.0167  0.0830
    1W        W43853  12.582  22.286   9.320 -0.1588 -0.1613 -0.0876
    1W        W43854   4.168  21.557   8.781  0.2253 -0.1785  0.1257
    1W        W43855  29.681  13.504   0.538 -0.1294 -0.0234  0.3420
    1W        W43856  11.328   7.160   2.549 -0.2449 -0.1674  0.2980
    1W        W43857  19.500   9.370   7.915  0.0043  0.2218 -0.2869
    1W        W43858  10.815  24.073   1.526  0.0191  0.0666 -0.2287
    1W        W43859  28.580  15.740   8.297 -0.2159  0.4505 -0.2604
    1W        W43860   4.578  18.067   8.625 -0.1989  0.1596  0.0301
    1W        W43861  11.692  21.115   0.250  0.0185  0.0828  0.2440
    1W        W43862  20.565  16.915   8.600 -0.3117  0.0617  0.1960
    1W        W43863  13.380  18.847   0.490 -0.0028 -0.3600  0.5409
    1W        W43864  23.747   4.931   0.610  0.0084 -0.0473 -0.0212
    1W        W43865  14.377  24.075   2.041 -0.0742 -0.3563 -0.0006
    1W        W43866  28.176   3.772   7.529  0.0261 -0.0945 -0.1158
    1W        W43867  11.232   5.330   7.720  0.2382 -0.1097 -0.0235
    1W        W43868  11.530   4.775   3.374  0.2114  0.1072  0.0126
    1W        W43869  13.364   5.803   0.554 -0.2217 -0.4433 -0.2931
    1W        W43870   4.831   0.812   1.624 -0.0325  0.3052 -0.1195
    1W        W43871   4.317   0.356   8.951  0.1403 -0.0710  0.2829
    1W        W43872  25.441  23.276   9.089  0.0843  0.1847  0.1587
    1W        W43873  16.001   2.574   1.843 -0.2208  0.1912  0.0737
    1W        W43874  20.205  20.762   1.808  0.1140 -0.2313  0.1132
    1W        W43875  22.759   3.573   8.634 -0.2307 -0.1439  0.0480
    1W        W43876   0.918   3.727   2.748  0.1817  0.4835  0.0098
    1W        W43877   7.358  23.963   0.088 -0.0687 -0.1061 -0.1604
    1W        W43878   7.651  18.158   5.949 -0.0505 -0.1098  0.0312
    1W        W43879  17.147  11.108   0.774 -0.0118  0.2440  0.0029
    1W        W43880  23.862  26.855   7.107 -0.1388  0.2477 -0.0429
    1W        W43881  26.490  12.074   2.075 -0.1895 -0.0429  0.0859
    1W        W43882  21.445  10.553   0.077  0.0123 -0.0110  0.0495
    1W        W43883  13.401   5.143   8.485  0.2424 -0.2889 -0.1483
    1W        W43884   6.893  18.016   1.754 -0.0397 -0.0740 -0.0814
    1W        W43885  28.738  19.668   7.284 -0.3421 -0.0820  0.3525
    1W        W43886  14.986  22.689   8.773 -0.0944 -0.1549 -0.2816
    1W        W43887  19.826  22.826   1.624  0.0283  0.4295  0.2228
    1W        W43888  18.683   3.167   0.846  0.1109 -0.2316  0.1298
    1W        W43889   1.460  21.071   7.346  0.0235  0.1648  0.0620
    1W        W43890  27.034  21.102   8.046 -0.1968  0.4146  0.0331
    1W        W43891  18.779  25.343   7.797 -0.1476 -0.2027  0.2072
    1W        W43892   0.017  15.414   8.656 -0.3094 -0.1254 -0.0894
    1W        W43893  15.555   8.373   1.699 -0.0857 -0.2395 -0.0607
    1W        W43894  17.196   1.902   7.123  0.0337  0.0192  0.2117
    1W        W43895  29.405  27.195   1.817 -0.1144  0.2237  0.1629
    1W        W43896  28.059   2.633   2.589  0.3309  0.1713 -0.1202
    1W        W43897  24.678  24.250   8.248  0.1225  0.4072  0.0367
    1W        W43898  19.961  11.482   6.588 -0.1645  0.0472  0.1283
    1W        W43899   7.525  26.601   7.769  0.0970 -0.0682  0.1542
    1W        W43900  22.145  16.089   0.893  0.3463 -0.0378  0.0845
    1W        W43901  23.719   7.515   2.642 -0.0334 -0.0785  0.1558
    1W        W43902  17.098  29.266   1.915  0.3690 -0.1268 -0.1359
    1W        W43903  22.038  19.137   2.373 -0.1625  0.1152 -0.0848
    1W        W43904  15.832  28.113   3.048  0.1730  0.0420  0.0420
    1W        W43905  11.930  23.036   1.468 -0.0225 -0.2086  0.1043
    1W        W43906   8.867  15.644   0.571  0.2633  0.1753 -0.0626
    1W        W43907   6.322  26.653   8.070 -0.1400  0.1252 -0.1548
    1W        W43908   7.089  14.737   8.733 -0.0230  0.1161  0.1672
    1W        W43909  20.972  25.572   8.770  0.1513 -0.1847  0.0681
    1W        W43910  22.626  16.572   8.034  0.1071 -0.1835  0.0762
    1W        W43911   8.828   7.886   7.989 -0.0766  0.1095 -0.2361
    1W        W43912  28.469  26.020   8.226  0.1032  0.1395  0.1771
    1W        W43913   2.096   5.939   7.416  0.0081 -0.3401  0.1729
    1W        W43914  19.130  26.238   0.799 -0.0030 -0.1846 -0.0788
    1W        W43915  19.932  18.674   1.238 -0.0279  0.0864  0.1629
    1W        W43916   2.927  17.441   8.863  0.3314 -0.0559 -0.2995
    1W        W43917   1.376  25.258   7.959  0.0071 -0.1009 -0.0172
    1W        W43918  16.543   7.384   2.281 -0.5430  0.0074  0.3229
    1W        W43919  10.466   9.312   2.473 -0.0842  0.0870  0.0678
    1W        W43920  20.846   9.509   8.742 -0.1075  0.0479 -0.2139
    1W        W43921  23.877  26.571   0.653 -0.2520  0.1246  0.0541
    1W        W43922   2.087  23.182   7.708  0.2449 -0.4745  0.0815
    1W        W43923  10.025  23.065   9.314  0.0827 -0.2089 -0.3569
    1W        W43924  18.756   5.745   6.711  0.2582  0.4681  0.0565
    1W        W43925   7.802  24.770   1.347  0.1101  0.0426 -0.1445
    1W        W43926  19.335   1.673   8.843  0.1497 -0.2425 -0.0166
    1W        W43927  24.384  26.775   7.253 -0.1560 -0.2577 -0.1270
    1W        W43928   1.506  22.577   1.303  0.0114  0.1716 -0.1383
    1W        W43929  26.027  15.976   5.510 -0.0722 -0.1379  0.2604
    1W        W43930  11.085  29.500   3.407  0.2601 -0.2310  0.0328
    1W        W43931   4.405  17.990   8.138  0.0083 -0.1308  0.1537
    1W        W43932  26.010  13.901   7.169  0.0551 -0.0070 -0.2397
    1W        W43933   8.836  27.662   9.014 -0.1845  0.2415 -0.1356
    1W        W43934  15.483   2.599   8.410  0.0239  0.0338  0.1157
    1W        W43935   4.066  27.367   6.637  0.4034  0.0073 -0.1011
    1W        W43936   9.933   7.992   3.432 -0.0311 -0.2975 -0.2591
    1W        W43937   0.302   1.931   6.835 -0.1150 -0.0210  0.1566
    1W        W43938  17.167  24.831   8.250  0.1579 -0.0680 -0.0491
    1W        W43939  20.225   4.753   0.970 -0.1801  0.2143 -0.3370
    1W        W43940   4.806  27.970   6.577  0.0991  0.0796 -0.1110
    1W        W43941  27.420  16.137   2.276 -0.5840 -0.0663 -0.0817
    1W        W43942  28.854  19.697   0.519  0.3434 -0.1292  0.2069
    1W        W43943  21.405   0.400   0.387  0.0909 -0.2411 -0.4667
    1W        W43944  10.829  12.952   7.763 -0.0766  0.0061 -0.0793
    1W        W43945  11.271   1.106   7.897  0.2576 -0.0309  0.0791
    1W        W43946  23.265  17.586   9.365 -0.0691 -0.0621 -0.0978
    1W        W43947  14.404  19.178   1.562 -0.1787 -0.2380 -0.0557
    1W        W43948   4.490   7.978   3.045  0.1459 -0.0204 -0.0962
    1W        W43949  17.163  29.736   1.693  0.0193  0.1967  0.1069
    1W        W43950  29.562   8.641   7.313 -0.0180 -0.2361  0.0925
    1W        W43951  13.047  15.062   6.694  0.0397 -0.2729 -0.2016
    1W        W43952   4.009  17.239   9.043  0.0921 -0.1419  0.1675
    1W        W43953   4.758   2.521   0.783 -0.1710  0.0844  0.0248
    1W        W43954  23.372  16.473   7.268 -0.1153  0.0400 -0.2819
    1W        W43955   6.989   7.472   0.801 -0.0204 -0.1283 -0.3949
    1W        W43956   9.264  25.447   2.020  0.0588 -0.0099  0.3172
    1W        W43957  21.331  16.473   0.475 -0.1431  0.0209 -0.2299
    1W        W43958  28.144  28.727   2.614 -0.1051 -0.0234 -0.2685
    1W        W43959  16.314  17.631   7.680  0.1804  0.0345  0.1256
    1W        W43960  13.281  18.423   6.362 -0.1219 -0.2082 -0.0096
    1W        W43961   5.367  12.004   7.700  0.1554  0.0088 -0.0754
    1W        W43962  26.102   7.896   2.596  0.1607 -0.1199  0.0799
    1W        W43963  27.623  21.742   0.230  0.1833  0.0988  0.2698
    1W        W43964   1.666   7.971   6.977  0.0082 -0.2179 -0.1884
    1W        W43965  17.260  23.258   2.126  0.1643 -0.0019 -0.1574
    1W        W43966   7.634  29.465   9.228 -0.1877 -0.2004  0.1199
    1W        W43967  24.023   7.504   0.714 -0.0092  0.0787  0.1239
    1W        W43968  20.649  11.886   8.617  0.3140  0.1089  0.1631
    1W        W43969  18.844  29.759   7.647  0.1024 -0.0244  0.0138
    1W        W43970  23.645  11.705   1.538 -0.4074  0.0835 -0.1564
    1W        W43971   6.030  24.901   1.217  0.1086 -0.0602 -0.1538
    1W        W43972  19.436   7.084   0.406 -0.4465  0.0387  0.0392
    1W        W43973  20.292  20.774   9.140  0.3538 -0.1479 -0.0511
    1W        W43974   4.882   0.480   7.346 -0.1038 -0.1582 -0.1569
    1W        W43975  17.658  24.833   7.107  0.0526  0.0912  0.2379
    1W        W43976  26.730  12.254   0.561 -0.0790 -0.0039  0.0579
    1W        W43977  29.236  12.776   0.816  0.0455 -0.0399 -0.1058
    1W        W43978  12.502  23.486   9.255 -0.2628  0.0301  0.3408
    1W        W43979   7.888  19.797   0.091 -0.5669 -0.0858 -0.0571
    1W        W43980  21.830  20.540   2.387  0.0823 -0.2025  0.0745
    1W        W43981  10.354   3.295   0.925 -0.0077 -0.0938 -0.2524
    1W        W43982   4.618  15.571   6.353  0.0767 -0.1033 -0.1361
    1W        W43983  20.605  22.821   2.731  0.1870  0.3733 -0.2923
    1W        W43984   4.031  20.350   1.078 -0.0291 -0.0411  0.0447
    1W        W43985  16.508  25.519   1.875  0.1774 -0.1566  0.0218
    1W        W43986  27.169  14.283   5.305  0.5079 -0.1677  0.0652
    1W        W43987   7.014  17.186   0.916 -0.1150  0.0013 -0.0386
    1W        W43988   3.446   2.391   0.331  0.0992  0.3626 -0.1531
    1W        W43989  11.063  28.266   1.824 -0.2343  0.0141  0.1259
    1W        W43990  29.356   6.205   0.329  0.1949  0.2885  0.4292
    1W        W43991  26.799   4.631   0.669  0.0464 -0.1063 -0.2055
    1W        W43992  19.713   1.509   1.306  0.0803  0.6921 -0.1873
    1W        W43993   9.301  15.644   7.080  0.3010  0.2443  0.1678
    1W        W43994   4.847  11.717   6.675  0.0401 -0.2762  0.1829
    1W        W43995   5.932   9.467   7.616 -0.2049 -0.1973  0.0443
    1W        W43996  16.817  28.204   1.831 -0.0011  0.2176  0.3493
    1W        W43997  14.479  22.497   6.139  0.0705 -0.2327  0.3649
    1W        W43998   1.748  14.654   0.346 -0.1233 -0.0770 -0.0788
    1W        W43999  24.509   5.047   7.951 -0.0952  0.0444  0.2124
    1W        W44000  15.601   0.000   7.906  0.2195  0.2725 -0.1050
    1W        W44001  10.095   0.569   3.326 -0.0732  0.2395  0.2465
    1W        W44002  18.729  14.711   0.309  0.0701  0.2463 -0.0596
    1W        W44003  12.596   2.104   1.143 -0.0334 -0.1416 -0.1853
    1W        W44004  26.134  14.357   1.182  0.0377 -0.0728  0.1343
    1W        W44005  27.785   0.755   9.331 -0.1036 -0.1260  0.0593
    1W        W44006   8.378  11.741   1.027  0.0463 -0.2277 -0.2895
    1W        W44007  27.195   2.068   2.503 -0.1253  0.0850 -0.0842
    1W        W44008  20.985  18.232   7.988  0.0245 -0.0880  0.0015
    1W        W44009  11.218  12.928   0.003  0.0473  0.1573 -0.3397
    1W        W44010  15.282  19.217   1.900 -0.0626 -0.1597  0.2672
    1W        W44011  24.133  11.485   1.398 -0.1025 -0.3777 -0.0650
    1W        W44012  17.009  10.384   8.849 -0.1420 -0.0257 -0.0751
    1W        W44013  25.377   8.691   7.499 -0.1059  0.0363  0.0933
    1W        W44014   6.563   5.386   1.237  0.0807  0.5076 -0.0145
    1W        W44015   4.861   1.562   0.980 -0.1384  0.1325 -0.1016
    1W        W44016  11.798  29.747   1.129  0.2230  0.1141 -0.3164
    1W        W44017   7.457  27.854   8.738  0.1505 -0.1554  0.0069
    1W        W44018  28.739   3.887   2.927  0.0275  0.2686  0.4589
    1W        W44019  12.474  21.755   9.309 -0.1227 -0.1337  0.4568
    1W        W44020  21.480  24.035   8.561 -0.0009  0.1604  0.4985
    1W        W44021   5.643   8.997   0.359  0.0526  0.1627 -0.2957
    1W        W44022   2.617   1.391   8.282  0.2960  0.2779 -0.3460
    1W        W44023  28.941  21.197   0.301 -0.1167 -0.2566  0.1973
    1W        W44024  27.254  13.086   2.481 -0.1132 -0.0382 -0.1212
    1W        W44025  15.691  11.089   9.040  0.1616  0.0712  0.3113
    1W        W44026   2.132   5.767   0.064 -0.0339 -0.0379  0.0827
    1W        W44027  26.479  16.582   5.906  0.1221  0.1299  0.0749
    1W        W44028   3.450  26.136   8.812 -0.2015 -0.0090  0.0086
    1W        W44029   7.180   6.068   3.003 -0.1555 -0.1575 -0.0215
    1W        W44030   8.025   4.789   8.682 -0.1680 -0.1858 -0.0283
    1W        W44031  28.803   2.235   0.672 -0.2024 -0.0006  0.1909
    1W        W44032  19.794   9.862   8.033 -0.3238  0.0588  0.1350
    1W        W44033  21.996  25.947   1.225  0.3925 -0.2071 -0.0070
    1W        W44034  11.542  11.712   7.688  0.1647 -0.4406  0.0083
    1W        W44035   9.063   1.812   7.570  0.1554 -0.2543  0.0110
    1W        W44036  20.247   1.102   2.967 -0.1265  0.0247  0.0223
    1W        W44037   1.452  13.922   8.384 -0.2222 -0.0713  0.1529
    1W        W44038   6.962  26.049   6.556 -0.0768  0.0693  0.1594
    1W        W44039   4.230   6.520   1.793 -0.1181  0.0027  0.4199
    1W        W44040  29.586   2.665   7.321 -0.0924 -0.1369  0.0275
    1W        W44041   4.753   8.824   8.189  0.1344  0.4821 -0.3040
    1W        W44042  13.323   3.512   3.113  0.0064 -0.0105 -0.0814
    1W        W44043  29.666   2.163   2.214  0.2105  0.0433 -0.1720
    1W        W44044  18.493  24.499   1.620 -0.1218 -0.1964  0.0464
    1W        W44045  27.184  15.620   5.873  0.1345  0.1587 -0.0790
    1W        W44046  18.101  13.786   0.002 -0.2915 -0.2414  0.0540
    1W        W44047  22.017   5.229   1.414 -0.1951  0.2582 -0.0230
    1W        W44048   7.623  29.531   2.391  0.2960  0.5266  0.4268
    1W        W44049  10.746  11.939   1.461 -0.0956 -0.2048 -0.1413
    1W        W44050   9.448  29.800   7.103 -0.1469 -0.3875  0.0912
    1W        W44051  27.891  13.473   8.898  0.1152 -0.1121  0.0509
    1W        W44052  15.468  29.316   4.026  0.0086 -0.0396 -0.0568
    1W        W44053   2.251   6.994   9.294  0.0365  0.1280 -0.3348
    1W        W44054  10.533  18.037   6.962  0.1827 -0.0911 -0.3413
    1W        W44055  28.691   5.278   9.027 -0.0310 -0.2564  0.2364
    1W        W44056   7.968  26.985   1.181 -0.1336  0.4002 -0.1665
    1W        W44057  10.688  20.652   0.250 -0.1890 -0.0347  0.1865
    1W        W44058  28.996   4.098   3.258  0.0782 -0.1022 -0.1919
    1W        W44059  21.961   4.330   2.594 -0.1167 -0.0054 -0.3076
    1W        W44060   8.344   0.209   0.918  0.1184  0.0959 -0.1570
    1W        W44061  11.170  17.351   0.031  0.0381  0.1345 -0.1063
    1W        W44062   7.996   1.509   0.687 -0.2100  0.4182 -0.0704
    1W        W44063  16.420   7.893   8.608  0.1139  0.2225 -0.0558
    1W        W44064  18.883  13.961   1.063 -0.0021 -0.0103  0.1063
    1W        W44065   8.541  23.307   2.700  0.1921 -0.0604 -0.0235
    1W        W44066  13.339  16.014   0.388 -0.0018  0.0896  0.2075
    1W        W44067   0.166   4.231   1.815 -0.0262  0.0786  0.1375
    1W        W44068  13.322  13.141   8.597 -0.3818 -0.1498 -0.1002
    1W        W44069  23.066  27.990   7.720 -0.1649  0.1827  0.1831
    1W        W44070  16.568  26.119   0.155  0.1878  0.3199  0.2020
    1W        W44071  16.753  25.359   8.380  0.0012  0.4444 -0.3043
    1W        W44072   3.846   1.850   8.825  0.1488  0.1780 -0.1216
    1W        W44073   3.415  10.557   8.563 -0.2611  0.1411 -0.0490
    1W        W44074   1.783  22.621   6.040 -0.1424 -0.0697 -0.0143
    1W        W44075  29.694  11.272   7.575 -0.0606  0.1279  0.0972
    1W        W44076  10.646  14.919   1.467  0.1085 -0.0711  0.2401
    1W        W44077  12.622  26.364   7.293  0.1133 -0.1983 -0.4981
    1W        W44078   9.055  11.673   2.191 -0.1338  0.4344  0.1322
    1W        W44079  13.034  28.507   3.050  0.0955 -0.1589  0.1739
    1W        W44080  23.696  21.091   2.116 -0.1623  0.1818  0.1806
    1W        W44081  12.514   0.734   8.255  0.1121  0.0228 -0.0061
    1W        W44082  26.609   0.463   1.787  0.2372  0.0482 -0.1902
    1W        W44083   6.050   1.061   7.938  0.2453  0.0263 -0.1778
    1W        W44084   7.472   3.165   0.376 -0.3794 -0.0638  0.5041
    1W        W44085  26.873  22.763   0.352  0.1196 -0.1475 -0.0323
    1W        W44086   1.957  11.955   8.732  0.0973  0.1476  0.0148
    1W        W44087   3.038  23.970   5.350 -0.2043  0.2863 -0.0199
    1W        W44088  22.167  23.985   2.993  0.2422 -0.2051  0.2049
    1W        W44089   8.022   9.138   0.890  0.1665 -0.3363  0.2147
    1W        W44090  11.382  11.242   0.500 -0.0602 -0.0177  0.2119
    1W        W44091  11.950  12.188   8.424  0.0546 -0.2294 -0.3639
    1W        W44092  12.493   1.043   0.646 -0.0226  0.4379  0.1301
    1W        W44093  22.005  28.456   8.534  0.0993 -0.1991  0.0016
    1W        W44094  27.472  13.600   1.304  0.0160 -0.1387  0.1209
    1W        W44095  29.688  16.638   7.659  0.0331 -0.2399 -0.1157
    1W        W44096  27.726  28.912   2.487  0.3119 -0.0153  0.0478
    1W        W44097   3.700  20.079   6.972 -0.0433  0.0792  0.1122
    1W        W44098  20.267  10.092   1.793 -0.0228 -0.1697  0.0541
    1W        W44099  11.897  17.920   6.591  0.2154  0.1145  0.3131
    1W        W44100  17.613   7.113   7.028 -0.3248  0.1569  0.1167
    1W        W44101   7.700  28.680   1.364  0.1646 -0.1160 -0.0765
    1W        W44102  26.243  21.311   0.120 -0.1340 -0.0361 -0.0063
    1W        W44103  21.788  16.782   7.444  0.0877 -0.3629  0.3464
    1W        W44104  22.031   6.633   6.151  0.1420 -0.1246 -0.2252
    1W        W44105   3.736  19.966   0.991  0.4470 -0.3180  0.1449
    1W        W44106   3.425  23.497   8.001  0.1070  0.0789 -0.2281
    1W        W44107  16.373  13.948   7.617  0.1351 -0.0811 -0.0198
    1W        W44108  21.795   2.519   9.458 -0.1581  0.2839  0.2378
    1W        W44109  13.194  24.011   8.162  0.1069 -0.1478 -0.0901
    1W        W44110  21.892  26.873   6.367  0.2612  0.0727  0.1731
    1W        W44111  23.808  19.033   7.136 -0.0797  0.2141 -0.0410
    1W        W44112   6.894  18.235   7.872 -0.0124  0.0226  0.1501
    1W        W44113  18.732  28.000   2.781 -0.1447 -0.0936  0.1136
    1W        W44114   7.022   0.567   0.760 -0.2133  0.0648  0.1720
    1W        W44115   8.789  20.339   0.372 -0.2209 -0.1014 -0.3697
    1W        W44116   2.444   3.980   1.411 -0.2317  0.0024 -0.2080
    1W        W44117   3.198  10.985   8.801  0.2465 -0.4431  0.0553
    1W        W44118  12.666   3.802   0.596  0.0753  0.1038 -0.3196
    1W        W44119  12.364   8.839   2.161 -0.1306  0.2567  0.0896
    1W        W44120  26.224  14.668   0.745 -0.0776  0.0433 -0.1163
    1W        W44121  29.694  21.132   8.538  0.3562  0.2015  0.3544
    1W        W44122  18.416   9.560   8.833  0.0827 -0.2192 -0.2213
    1W        W44123  28.981  18.460   1.681 -0.0210  0.1815  0.0418
    1W        W44124  18.835  29.666   3.788  0.2373  0.2035  0.2577
    1W        W44125   4.761  15.808   9.274 -0.0972  0.3254 -0.0545
    1W        W44126  17.365   0.686   1.227 -0.2500  0.0365  0.2286
    1W        W44127  23.696   2.282   1.374  0.0265 -0.1339  0.2486
    1W        W44128  27.953   6.211   8.993  0.3666  0.1802 -0.1964
    1W        W44129   1.340  10.961   7.749 -0.2050 -0.0603 -0.1150
    1W        W44130  13.396  28.447   0.024  0.3367 -0.4893  0.1131
    1W        W44131   6.858  26.555   8.987 -0.0466  0.0006 -0.3642
    1W        W44132   1.537  20.701   8.153  0.2226 -0.0942  0.2599
    1W        W44133  11.706   3.922   1.555 -0.1698 -0.1301 -0.3494
    1W        W44134  16.485  28.140   2.192 -0.0339  0.0816  0.2509
    1W        W44135   5.148  19.988   7.794  0.0490 -0.0277 -0.0046
    1W        W44136  23.339  29.039   9.202  0.3965 -0.2240  0.1014
    1W        W44137   1.912   6.311   7.838 -0.1217 -0.2055 -0.3236
    1W        W44138   4.406  18.277   9.140 -0.0253  0.1412  0.2167
    1W        W44139   5.679  13.552   8.405  0.1446 -0.1705  0.2199
    1W        W44140   4.100  23.140   9.256 -0.0530  0.0229  0.0507
    1W        W44141   0.229  13.162   8.088  0.3098 -0.4489  0.1474
    1W        W44142  15.296   9.343   8.958  0.0988 -0.2673 -0.0019
    1W        W44143   9.922  14.545   0.605  0.0453  0.0966  0.1141
    1W        W44144  12.315  10.182   0.247 -0.1459  0.3068  0.0745
    1W        W44145  16.855  17.635   0.790  0.2809 -0.1467 -0.0052
    1W        W44146  22.450   7.046   7.579  0.0342 -0.0350 -0.1799
    1W        W44147   0.093  18.755   0.410 -0.1932  0.0041  0.3591
    1W        W44148  19.776  19.593   1.543 -0.0767 -0.0290 -0.2088
    1W        W44149  18.681  14.942   9.290 -0.1319  0.1889  0.1202
    1W        W44150   5.281   7.058   0.698 -0.1319 -0.0809 -0.1904
    1W        W44151  25.776   1.470   2.312  0.2892  0.1518 -0.4590
    1W        W44152  23.040  29.135   0.888  0.0619 -0.0605 -0.2523
    1W        W44153  22.207  21.964   2.098  0.2336 -0.0781 -0.1108
    1W        W44154  27.952  25.919   8.681  0.1222  0.1904 -0.4872
    1W        W44155   6.861   0.138   2.511 -0.1383 -0.1898  0.2065
    1W        W44156   6.359  20.340   6.543  0.0129  0.2384 -0.0126
    1W        W44157   5.208   4.312   3.773  0.0019 -0.1619  0.0803
    1W        W44158   1.151  21.102   5.551 -0.1832  0.1280 -0.1298
    1W        W44159   2.623   2.380   0.599  0.1149 -0.1393 -0.2802
    1W        W44160  22.151   0.385   2.786  0.0573 -0.0776  0.2496
    1W        W44161   1.429  25.709   5.896 -0.0782 -0.0682 -0.0308
    1W        W44162  13.452  13.450   2.489  0.0088 -0.0153  0.2074
    1W        W44163   3.569  14.252   8.308  0.1062 -0.3624  0.2042
    1W        W44164   6.179  14.484   8.569 -0.2049  0.3042 -0.2873
    1W        W44165  19.486  25.631   8.399  0.2792  0.2147 -0.0649
    1W        W44166   8.093  19.644   8.346 -0.2703 -0.1786 -0.0046
    1W        W44167  15.779   2.280   0.444 -0.0543  0.1212 -0.0697
    1W        W44168  16.496   4.968   1.472 -0.2023 -0.2974 -0.0471
    1W        W44169  13.196  15.264   0.825 -0.0367 -0.1993  0.2826
    1W        W44170   5.792   8.461   2.584 -0.0300  0.0786 -0.2171
    1W        W44171  10.454  18.857   1.706  0.0826  0.0873 -0.2795
    1W        W44172  25.854  22.956   2.331  0.1918  0.1183  0.2205
    1W        W44173  10.032  16.260   9.079  0.0905  0.1649  0.0342
    1W        W44174  29.146   6.753   2.975  0.0116  0.1998  0.1287
    1W        W44175  11.820  19.755   6.937  0.0953  0.1614  0.0523
    1W        W44176  23.443  23.870   1.703  0.1847 -0.0315  0.0383
    1W        W44177   9.096   2.798   1.900 -0.1325  0.1896  0.0385
    1W        W44178  18.458   5.850   8.103 -0.2862  0.0773 -0.0273
    1W        W44179  11.606   6.359   2.579 -0.0474  0.0520  0.0706
    1W        W44180  12.792   1.997   9.403  0.2038 -0.0802  0.0408
    1W        W44181   0.294   8.320   7.054  0.0214 -0.1490  0.1941
    1W        W44182   0.296  23.520   6.037  0.0512  0.3229  0.1690
    1W        W44183   6.177  15.171   6.074 -0.0088 -0.0212  0.0329
    1W        W44184  27.515   8.674   8.772  0.0673  0.0384 -0.0057
    1W        W44185   0.517   4.585   1.614 -0.1960  0.0990  0.1705
    1W        W44186   3.965  13.882   1.200 -0.2552 -0.0722  0.0196
    1W        W44187  27.939  18.419   0.761 -0.1604 -0.2002  0.4541
    1W        W44188  13.900  18.146   1.665  0.1633 -0.0749 -0.1110
    1W        W44189   0.225   4.324   2.801  0.0898  0.2133  0.2640
    1W        W44190  18.973  11.329   1.262  0.0720  0.0120 -0.0663
    1W        W44191   3.092  13.732   8.741  0.1602  0.0239  0.3778
    1W        W44192  29.493  18.499   6.121 -0.1289  0.1781  0.1802
    1W        W44193  23.193   0.600   7.868 -0.0960  0.0832  0.5706
    1W        W44194  11.876   8.952   0.485  0.2029 -0.1653 -0.0031
    1W        W44195  28.441   2.737   8.284 -0.2525  0.0985  0.2175
    1W        W44196  10.571   4.461   2.843 -0.2690  0.4588 -0.1957
    1W        W44197  12.714  10.780   1.732 -0.1041 -0.1015  0.1174
    1W        W44198  25.468   2.123   6.645  0.2101 -0.2847  0.0427
    1W        W44199   8.592   9.883   8.288 -0.1012  0.1313 -0.1213
    1W        W44200   7.808  10.703   2.054  0.1896 -0.0945  0.0180
    1W        W44201   1.286  15.285   1.224 -0.0004  0.1898 -0.1171
    1W        W44202   9.120   7.793   8.864  0.4032 -0.0652  0.0208
    1W        W44203   7.622   4.393   8.445 -0.0146 -0.3202  0.1660
    1W        W44204  11.454  15.523   1.862  0.4241 -0.0261  0.0394
    1W        W44205   6.782  20.254   1.470  0.0869  0.1791 -0.0752
    1W        W44206   6.421  10.768   2.135 -0.1489 -0.2220  0.2870
    1W        W44207  18.823   5.874   9.039 -0.1738 -0.0760  0.2102
    1W        W44208  16.301  27.496   8.287  0.0584 -0.1060  0.0881
    1W        W44209  19.804  13.655   2.250 -0.0773 -0.1859  0.0523
    1W        W44210  12.470  18.262   7.910  0.0682 -0.0475  0.0464
    1W        W44211   7.256   8.160   1.421 -0.3144 -0.1362  0.0433
    1W        W44212  15.886   4.791   2.068 -0.2857  0.0391 -0.1606
    1W        W44213  21.988   1.155   2.380  0.2614  0.2172  0.1886
    1W        W44214  22.868  21.567   8.883  0.0183  0.0530  0.1847
    1W        W44215   6.495   8.280   2.789 -0.1436 -0.0036  0.0265
    1W        W44216   6.094  22.200   7.529 -0.0148  0.1399  0.1108
    1W        W44217  24.364  28.127   1.594 -0.0111 -0.1109 -0.0415
    1W        W44218  29.597   6.944   2.898 -0.2056  0.0166 -0.1641
    1W        W44219  14.212  16.443   1.983 -0.2092  0.2392 -0.1836
    1W        W44220  18.736  14.041   1.693  0.2080 -0.2144  0.0507
    1W        W44221  21.868   4.455   1.563 -0.0891 -0.0162 -0.1466
    1W        W44222  17.646  29.127   0.010 -0.2349  0.3627  0.0044
    1W        W44223  21.606  11.817   0.748 -0.4464 -0.3241  0.1071
    1W        W44224  24.572   2.577   7.486 -0.0212 -0.1430  0.0697
    1W        W44225   9.439  24.384   1.548  0.0335 -0.0960 -0.1831
    1W        W44226  22.712  20.663   0.705  0.0687  0.2682 -0.1435
    1W        W44227  13.939  18.171   6.822 -0.0101  0.0304 -0.1841
    1W        W44228   7.497  11.996   1.350 -0.0448  0.0277  0.1048
    1W        W44229  13.789  19.471   7.541  0.0992 -0.0200  0.1202
    1W        W44230  25.299  15.781   1.491 -0.1975  0.1289 -0.0502
    1W        W44231  16.385   7.776   2.536 -0.3021 -0.0133 -0.4081
    1W        W44232  18.851   4.714   3.146 -0.2134 -0.1732  0.1188
    1W        W44233  26.241   8.265   1.258 -0.1145  0.1199 -0.1508
    1W        W44234  16.279  10.645   7.731  0.1634  0.0915 -0.0900
    1W        W44235   0.082  22.023   0.112 -0.1574 -0.2360 -0.2046
    1W        W44236  23.201  18.783   9.203 -0.3856  0.2317 -0.3725
    1W        W44237  23.777  24.030   0.728 -0.0557 -0.1981  0.1215
    1W        W44238  14.088   1.633   3.109  0.3984 -0.0394 -0.0572
    1W        W44239  11.670  24.460   9.290 -0.1208  0.0530  0.1970
    1W        W44240  25.197  20.273   7.405  0.0085 -0.0471  0.0432
    1W        W44241  19.682  23.515   8.815  0.1468 -0.1240 -0.0847
    1W        W44242  13.482   1.978   7.854  0.1132 -0.0763 -0.0085
    1W        W44243  18.041  29.440   3.181  0.0888  0.4114  0.1655
    1W        W44244   1.853  28.982   7.663 -0.1317  0.1082  0.1820
    1W        W44245  11.255  28.794   2.020  0.1518  0.0130 -0.2076
    1W        W44246   9.376  22.264   6.382  0.0100 -0.2270 -0.1078
    1W        W44247  25.028   5.678   3.018  0.1119 -0.0761 -0.0389
    1W        W44248   9.790  24.140   1.862  0.1036 -0.1025 -0.0608
    1W        W44249   4.382  22.580   7.108  0.2015  0.0805  0.0130
    1W        W44250  19.141  21.493   2.472 -0.2707  0.0113  0.0081
    1W        W44251  14.965  12.599   0.032 -0.1845  0.0784  0.0751
    1W        W44252  25.822  22.306   1.730  0.1235 -0.1668  0.0001
    1W        W44253   2.833   9.427   1.021  0.2042 -0.0959  0.0617
    1W        W44254  27.687  12.362   0.653 -0.1455 -0.1325 -0.1419
    1W        W44255  13.758  27.512   2.439  0.3218 -0.0104  0.0805
    1W        W44256  26.855  27.042   0.874  0.0619 -0.1552  0.1536
    1W        W44257  15.102   2.636   1.189  0.1407  0.0967 -0.2091
    1W        W44258   9.851   5.697   2.384 -0.0337  0.3683  0.0213
    1W        W44259  27.879  17.470   6.690  0.4133  0.1446  0.2371
    1W        W44260  27.296  25.314   2.689  0.1944 -0.2902 -0.1389
    1W        W44261  20.531  26.792   6.690 -0.0476 -0.1896 -0.1499
    1W        W44262  18.748   2.207   8.263 -0.1454  0.0227  0.1207
    1W        W44263  14.764  11.527   7.466  0.2523  0.0352 -0.0177
    1W        W44264   2.181  18.088   1.456  0.0879  0.0036 -0.0953
    1W        W44265  19.410   3.344   7.353  0.0884 -0.2060  0.1661
    1W        W44266  27.209  23.956   7.862  0.1522  0.0677  0.1933
    1W        W44267   7.733   4.627   2.111  0.2421  0.0196 -0.0250
    1W        W44268   6.127  27.478   7.595  0.0825  0.1646  0.1080
    1W        W44269   5.823  18.560   1.552 -0.0449  0.1990  0.1037
    1W        W44270  27.825   3.449   1.300 -0.1203 -0.1572 -0.1310
    1W        W44271  28.220   0.984   8.671 -0.3022  0.2679  0.0452
    1W        W44272  27.962  21.649   7.905 -0.0754  0.2692 -0.3881
    1W        W44273   8.858  27.992   0.591  0.3605 -0.1483  0.3278
    1W        W44274   4.311  27.747   2.919 -0.1861 -0.2397 -0.0439
    1W        W44275   2.616  11.308   0.059  0.2997  0.1234  0.0456
    1W        W44276   2.773   0.899   7.061 -0.1328 -0.0840  0.1742
    1W        W44277  26.880  15.768   6.601 -0.3772 -0.0499 -0.1612
    1W        W44278   0.767  24.572   7.027  0.0288  0.1252  0.1824
    1W        W44279  15.375  15.301   2.557  0.3245  0.2602  0.1647
    1W        W44280   3.756   7.133   6.706  0.2724 -0.0933 -0.2866
    1W        W44281  27.797   6.665   8.865  0.0860 -0.0330 -0.2945
    1W        W44282  18.149  16.679   6.960 -0.0202 -0.0824 -0.0457
    1W        W44283  28.527  12.136   6.499 -0.1525  0.0961 -0.2255
    1W        W44284  27.442  27.578   7.745 -0.1561  0.2815  0.4159
    1W        W44285   8.311   7.287   7.398  0.0966  0.1815  0.0492
    1W        W44286   1.567  15.260   9.251 -0.1095  0.4166  0.0355
    1W        W44287   1.590  10.982   1.597 -0.1938 -0.4088  0.2030
    1W        W44288   8.207  25.030   8.456 -0.0485  0.0154 -0.2571
    1W        W44289   1.629  24.031   2.696  0.4417 -0.0208 -0.2408
    1W        W44290  24.401  23.548   6.624 -0.4490 -0.0241 -0.1778
    1W        W44291   1.146  26.831   7.166  0.4093 -0.1290 -0.0391
    1W        W44292  25.622  19.288   9.361  0.1715 -0.1439  0.0897
    1W        W44293  14.369  22.512   1.435  0.3461 -0.1229  0.0173
    1W        W44294  15.076  28.457   2.633  0.2879  0.2961 -0.1693
    1W        W44295   3.876   3.881   1.175  0.3451  0.1442  0.1545
    1W        W44296  22.477   7.811   3.157 -0.0578 -0.0757  0.1807
    1W        W44297  26.031  13.901   8.469  0.4046 -0.0705 -0.0791
    1W        W44298  25.058  24.570   0.938 -0.3645 -0.1259 -0.0909
    1W        W44299  20.202   4.530   1.897 -0.0559 -0.1340  0.0679
    1W        W44300  10.817   0.621   8.108  0.0911 -0.1494 -0.0287
    1W        W44301  25.546  22.746   0.031 -0.0006  0.0904  0.0076
    1W        W44302  28.047  16.596   8.008 -0.0309 -0.1434  0.1068
    1W        W44303  19.007  17.185   0.240  0.2325 -0.1174  0.0746
    1W        W44304  17.862  28.192   7.183 -0.2913  0.2421 -0.1006
    1W        W44305   5.829  19.134   0.249 -0.0292  0.2410 -0.0292
    1W        W44306   6.998  20.777   8.851 -0.3775 -0.1055  0.1410
    1W        W44307  26.804   2.922   2.406  0.0343  0.1467 -0.0506
    1W        W44308   3.121   5.654   6.610  0.0764 -0.1212  0.1984
    1W        W44309   4.788   7.289   0.619  0.0391 -0.1721  0.0543
    1W        W44310  22.588  17.943   1.768 -0.1566 -0.3558 -0.1820
    1W        W44311   0.008  13.209   5.882 -0.1214 -0.0993  0.0072
    1W        W44312   9.270   2.839   3.144  0.1421  0.1412  0.0260
    1W        W44313   5.521  14.208   2.780  0.0599  0.2697 -0.0891
    1W        W44314  28.756  20.950   8.768 -0.1285 -0.2428 -0.0186
    1W        W44315   2.808  12.068   6.048 -0.1254  0.1889 -0.1467
    1W        W44316  17.241  23.480   0.544 -0.0454 -0.0071 -0.2075
    1W        W44317  17.878  21.260   0.288  0.1488 -0.1016 -0.2283
    1W        W44318  19.289  27.362   0.448  0.0358  0.0551  0.0116
    1W        W44319  13.497  11.416   0.608  0.0452 -0.0570  0.1144
    1W        W44320  23.552   0.946   0.483 -0.0065 -0.0902  0.2186
    1W        W44321  10.468   5.986   8.299 -0.0384  0.2719  0.0396
    1W        W44322   2.444  17.879   7.652  0.2455  0.2054  0.0679
    1W        W44323  27.976  27.680   0.868 -0.0701  0.0997  0.1800
    1W        W44324  16.543  11.886   0.558  0.1427  0.1903 -0.2199
    1W        W44325  20.067  14.089   2.301  0.1498  0.1445 -0.0097
    1W        W44326   7.557  22.042   7.121  0.1816  0.0284  0.0999
    1W        W44327  10.536   5.118   0.163  0.1400  0.1466 -0.1218
    1W        W44328  12.932   1.285   2.445  0.0396 -0.2583  0.1656
    1W        W44329  20.911  13.095   1.061 -0.1763  0.2053  0.0622
    1W        W44330   5.404   9.640   7.474 -0.1303 -0.0261 -0.0756
    1W        W44331   2.062  19.955   8.473  0.1568 -0.5160  0.0154
    1W        W44332  13.524   5.777   8.106  0.2996  0.1575  0.2863
    1W        W44333  17.562  16.321   0.546 -0.0980  0.0573 -0.2310
    1W        W44334  10.686  17.542   6.768 -0.0696 -0.1775  0.1362
    1W        W44335   7.115  16.914   1.336 -0.0918  0.1578  0.2928
    1W        W44336  19.652   0.393   2.853  0.2596 -0.0167  0.0804
    1W        W44337   9.877  23.965   7.805  0.0299 -0.1822 -0.1491
    1W        W44338  19.122  21.816   1.535  0.0294 -0.1106  0.1857
    1W        W44339  16.881  16.625   1.382  0.1115  0.4126 -0.0025
    1W        W44340   1.550   7.840   2.125  0.0448  0.2613  0.5747
    1W        W44341   5.345   6.212   2.766 -0.0690  0.1235 -0.0642
    1W        W44342   0.565   9.049   7.818 -0.0260  0.1746  0.2713
    1W        W44343  21.701   6.385   5.823 -0.1650  0.3225 -0.1064
    1W        W44344   5.709  11.114   9.011  0.0396  0.0023  0.0503
    1W        W44345  18.804  18.214   1.883  0.0272 -0.0053  0.2366
    1W        W44346   4.268  29.402   8.819 -0.4004 -0.2834  0.0037
    1W        W44347  22.695   9.872   0.167  0.4495  0.0746  0.1341
    1W        W44348  24.978  12.943   1.410  0.1088 -0.0064  0.0057
    1W        W44349  16.370  20.366   8.461  0.2347  0.0275  0.2323
    1W        W44350   9.162   2.853   7.679  0.4003 -0.3337 -0.2458
    1W        W44351  27.597  24.402   2.663 -0.0157  0.0342  0.3038
    1W        W44352   0.539   0.230   2.382  0.2494 -0.0176 -0.0775
    1W        W44353   9.773  24.457   9.319 -0.0852 -0.1423 -0.0618
    1W        W44354  10.656  28.966   8.187 -0.1061  0.0331 -0.1607
    1W        W44355  20.751  22.407   8.743 -0.0367  0.1247  0.3154
    1W        W44356   5.558  27.078   6.581 -0.0981  0.0430  0.1773
    1W        W44357   6.998  12.438   2.686  0.1251 -0.0893 -0.0685
    1W        W44358  20.656  25.759   7.612  0.0436 -0.2912 -0.0854
    1W        W44359  25.840   4.640   7.611 -0.1975  0.0612 -0.3115
    1W        W44360   7.001   7.672   7.887  0.0391  0.0350  0.0276
    1W        W44361   1.756  27.528   0.416  0.0334  0.0584  0.0159
    1W        W44362   3.401   4.127   9.038  0.1208  0.0095 -0.2176
    1W        W44363  12.538  29.377   2.104  0.4003  0.0541  0.1172
    1W        W44364  22.148  13.416   8.377  0.0137  0.0498  0.1353
    1W        W44365  11.781  26.164   8.433 -0.0080 -0.0569  0.2093
    1W        W44366   2.219  23.215   5.058 -0.3543  0.3658 -0.4306
    1W        W44367  13.164   7.670   7.624 -0.0061  0.1019 -0.2085
    1W        W44368  14.583  24.332   8.439 -0.0277 -0.3578  0.2733
    1W        W44369   1.369  12.263   1.943 -0.1679 -0.0694 -0.0289
    1W        W44370  21.729   8.180   7.558 -0.1153  0.0421 -0.0560
    1W        W44371  19.899   4.860   6.397  0.1782 -0.1349 -0.2075
    1W        W44372  14.882  17.611   8.042 -0.0541 -0.0562  0.1426
    1W        W44373   4.856   4.810   0.198  0.1100 -0.2252 -0.3057
    1W        W44374   4.187  19.605   6.528  0.0668 -0.1972 -0.0432
    1W        W44375  20.911  20.129   7.376  0.1633  0.2368  0.0174
    1W        W44376  27.993   2.200   0.478 -0.1246  0.0292  0.1469
    1W        W44377   8.233   1.853   8.168 -0.1455 -0.3100 -0.0992
    1W        W44378   8.445   1.313   6.613 -0.0707 -0.0665  0.0572
    1W        W44379  26.136   6.734   2.355 -0.0994 -0.1267 -0.1082
    1W        W44380   3.466   9.548   9.305 -0.2538 -0.0625  0.0212
    1W        W44381  16.633  16.088   7.116  0.0374 -0.1713 -0.1629
    1W        W44382  15.044  21.933   1.546 -0.1449 -0.2433 -0.2302
    1W        W44383  23.091   3.627   7.641 -0.3283 -0.3735 -0.1807
    1W        W44384   6.235  25.259   1.777 -0.1901  0.0451  0.1407
    1W        W44385   2.977  13.286   7.082  0.3558  0.1283  0.2384
    1W        W44386   2.607  21.350   0.657  0.0340  0.0260 -0.0417
    1W        W44387   7.580  17.637   8.334 -0.2588  0.2700  0.0427
    1W        W44388  24.379  16.100   6.070  0.1454  0.1015 -0.1177
    1W        W44389  13.752   9.461   2.185  0.1226  0.1850 -0.3444
    1W        W44390  21.872  27.870   7.391 -0.1013 -0.0029 -0.3510
    1W        W44391  23.486  10.645   6.567  0.0955 -0.1727 -0.2329
    1W        W44392  22.216   8.044   9.085 -0.2078  0.0647 -0.0038
    1W        W44393   9.625  17.187   1.158 -0.3355  0.1665 -0.1122
    1W        W44394   2.387   3.186   3.188  0.0707 -0.1113 -0.0006
    1W        W44395  18.082  17.660   7.987 -0.1242 -0.0868  0.0478
    1W        W44396   8.445  10.692   7.882 -0.2363  0.2370 -0.0625
    1W        W44397  14.808  25.533   1.963 -0.0199 -0.0187 -0.0100
    1W        W44398  11.814  21.439   1.922  0.1097  0.0673  0.1993
    1W        W44399  18.744   0.191   2.890  0.1888 -0.0971  0.2331
    1W        W44400   6.698  10.964   9.007  0.2161 -0.0401 -0.1224
    1W        W44401  15.869   3.457   8.916  0.1673 -0.0112 -0.1824
    1W        W44402  20.585   3.429   7.795  0.0301 -0.0797 -0.0399
    1W        W44403  18.410  27.808   0.916  0.0420  0.0077  0.0524
    1W        W44404  12.051  13.155   8.531 -0.0703 -0.1621 -0.1349
    1W        W44405  26.641   3.739   7.502 -0.1842  0.0271 -0.2199
    1W        W44406  20.679   5.246   0.038 -0.0521 -0.1199  0.0969
    1W        W44407  14.815  14.493   7.799  0.1283  0.0295  0.2839
    1W        W44408  23.262  20.796   0.571 -0.1154 -0.1072  0.0211
    1W        W44409  22.536  23.308   1.296  0.1982  0.0234 -0.0324
    1W        W44410   1.214  25.705   9.211  0.0466  0.0216 -0.2955
    1W        W44411   4.647  27.554   8.898 -0.1898  0.0501  0.3230
    1W        W44412  20.090   0.496   2.212  0.1600 -0.2940 -0.0782
    1W        W44413  17.240   7.342   7.259  0.3026 -0.2538  0.1432
    1W        W44414  12.789  21.815   6.327 -0.3096  0.1586 -0.0150
    1W        W44415  17.256  20.926   9.177 -0.1016 -0.0535  0.0809
    1W        W44416  22.307  26.441   8.568 -0.2361  0.2348 -0.0432
    1W        W44417  15.879   1.878   9.455 -0.2505  0.1395 -0.2502
    1W        W44418   1.842  25.732   8.897  0.0630 -0.3702  0.1575
    1W        W44419  27.586  18.523   8.391 -0.2069  0.0985  0.2030
    1W        W44420  11.636  26.384   1.948  0.0739 -0.1737  0.1365
    1W        W44421  14.615   2.903   0.360 -0.0882 -0.1996  0.0347
    1W        W44422  27.567  20.363   1.595 -0.0237  0.0708 -0.0178
    1W        W44423  13.994  25.721   2.596 -0.5756  0.2326 -0.0138
    1W        W44424  20.468   9.255   6.235  0.4557 -0.1155  0.1046
    1W        W44425  20.628  18.659   1.998 -0.2629 -0.0674  0.1612
    1W        W44426  19.365  10.574   8.497 -0.1595 -0.0211 -0.0033
    1W        W44427  20.934  11.409   1.310 -0.0125  0.0024 -0.3297
    1W        W44428   1.755   9.507   8.030 -0.2429 -0.1756 -0.2829
    1W        W44429  12.567  15.704   1.447  0.1513 -0.0954  0.0943
    1W        W44430  24.618  25.699   1.511 -0.0775 -0.2269 -0.2803
    1W        W44431  14.989  22.714   8.299  0.1252  0.1355 -0.1965
    1W        W44432  16.632  27.651   3.015 -0.0503  0.1210  0.1601
    1W        W44433  23.592  10.149   6.710 -0.1296 -0.1549  0.0872
    1W        W44434  29.243  12.775   7.759 -0.1255 -0.2154 -0.3060
    1W        W44435  24.980  17.137   7.624 -0.4120  0.0055  0.1755
    1W        W44436  21.905   9.888   0.075 -0.1116 -0.1604  0.0420
    1W        W44437  15.806  15.959   8.296 -0.2343 -0.0977  0.0378
    1W        W44438  25.493   4.120   2.945 -0.1760 -0.1069  0.0255
    1W        W44439   1.348  25.135   0.512 -0.0400 -0.1653  0.0393
    1W        W44440  18.940  24.477   2.824  0.3358 -0.0333 -0.1047
    1W        W44441   8.255  12.168   1.824 -0.3198 -0.3487 -0.0874
    1W        W44442   6.017  17.189   8.398  0.3061 -0.2755  0.3555
    1W        W44443  19.098  13.502   1.596  0.2202 -0.1310  0.1444
    1W        W44444  11.954   8.663   3.090 -0.4889  0.0738 -0.2618
    1W        W44445   2.355  10.919   7.605  0.2966 -0.2725  0.0585
    1W        W44446  28.790  28.571   2.554  0.0186 -0.0151  0.0389
    1W        W44447   3.250  17.807   1.154 -0.3139 -0.2390  0.2602
    1W        W44448  25.213  20.505   0.593  0.0798  0.0474 -0.1909
    1W        W44449  14.191  28.799   7.555 -0.0917 -0.1794  0.0834
    1W        W44450  23.726   2.232   7.037  0.1150  0.0239 -0.0427
    1W        W44451  11.933  12.133   8.908  0.1659  0.0057 -0.2383
    1W        W44452  19.271  17.686   7.281  0.0480 -0.2029  0.1006
    1W        W44453  21.204   8.884   1.563 -0.0714  0.1098  0.0631
    1W        W44454  27.085  11.580   0.724 -0.1402  0.1399 -0.0658
    1W        W44455   3.374  20.726   5.803  0.4708 -0.2168 -0.1841
    1W        W44456   5.706  25.342   6.550  0.0741 -0.0993  0.1780
    1W        W44457  29.404  13.290   0.960 -0.0893 -0.0895  0.1568
    1W        W44458   8.518  16.409   1.300 -0.1706  0.1333  0.2138
    1W        W44459  21.046  29.629   2.778  0.2543 -0.1971 -0.0712
    1W        W44460   1.644   1.332   8.385  0.2177  0.0694  0.0474
    1W        W44461   6.175  15.629   2.588 -0.0565 -0.3036 -0.1518
    1W        W44462  22.024   2.315   8.148 -0.0051 -0.0085  0.2236
    1W        W44463  20.221  13.563   0.688 -0.2371  0.3543  0.0158
    1W        W44464  17.359  29.613   8.074 -0.1241 -0.0018 -0.3491
    1W        W44465  13.029   7.554   7.152  0.1560 -0.3203 -0.0827
    1W        W44466  24.519  22.139   1.719 -0.2812  0.1194 -0.2579
    1W        W44467  24.022  15.543   9.227  0.1168 -0.1534  0.0144
    1W        W44468  28.710  12.822   5.895 -0.2291 -0.0662  0.0896
    1W        W44469  14.653  26.240   8.277  0.2233  0.0702  0.0007
    1W        W44470  24.506   6.545   3.269 -0.1594  0.0273 -0.2688
    1W        W44471  16.182   9.754   8.461 -0.0137  0.2722  0.0857
    1W        W44472  18.005  26.592   9.412 -0.2837  0.0140  0.3626
    1W        W44473  10.482  28.331   1.567  0.0386 -0.0155  0.3418
    1W        W44474   3.560  19.642   7.278 -0.0693 -0.1594 -0.0272
    1W        W44475   7.041  12.060   2.417  0.2740  0.0693  0.1385
    1W        W44476  22.252  15.104   0.967  0.0532 -0.1426  0.1146
    1W        W44477  12.637   6.728   7.173  0.0897  0.0069 -0.1539
    1W        W44478   7.658   9.978   8.214 -0.0408  0.0019 -0.1112
    1W        W44479  26.315   3.280   0.546  0.1685 -0.1662 -0.0788
    1W        W44480   2.859  14.055   7.564 -0.1660  0.1668 -0.5130
    1W        W44481  22.331  23.796   2.167 -0.1717 -0.1017 -0.0437
    1W        W44482  27.044  10.635   7.223  0.2032  0.2354  0.2107
    1W        W44483  24.595  21.175   1.721 -0.1611 -0.0993 -0.1400
    1W        W44484   7.369  28.069   7.573  0.1597 -0.2364 -0.2147
    1W        W44485   3.900   4.016   9.028 -0.0115  0.2444  0.0607
    1W        W44486  26.790   3.256   7.349 -0.1972 -0.3136  0.0808
    1W        W44487  22.908   4.553   3.093  0.1128  0.2132  0.0193
    1W        W44488   3.495  16.450   0.522  0.2268  0.1668  0.1491
    1W        W44489  18.631  20.356   7.523 -0.0599  0.3828 -0.2648
    1W        W44490   7.509  11.486   7.464 -0.1003  0.0942  0.1241
    1W        W44491   5.389  12.820   9.139 -0.2046 -0.0522  0.1253
    1W        W44492  12.759  17.846   8.028 -0.0321  0.2791  0.0473
    1W        W44493  13.718  28.309   2.942 -0.0383  0.2780 -0.3294
    1W        W44494  23.192  12.550   2.545 -0.0574  0.0149 -0.0049
    1W        W44495   0.620  28.025   8.917  0.0334  0.0703 -0.3500
    1W        W44496   0.890   5.593   2.496 -0.0054  0.0522  0.1403
    1W        W44497   2.077   3.033   0.211 -0.1115 -0.1216  0.0689
    1W        W44498   2.782  21.887   0.290  0.2248  0.2368 -0.1249
    1W        W44499  11.987   5.500   9.437  0.0263 -0.1887 -0.0052
    1W        W44500  14.288  16.714   0.646 -0.0185 -0.3548 -0.0557
    1W        W44501  14.199  20.643   1.131 -0.1730 -0.3840  0.0687
    1W        W44502  16.975   4.389   9.301  0.0825  0.0315  0.1884
    1W        W44503   8.950  21.486   0.479 -0.0876 -0.2541 -0.2381
    1W        W44504   2.510   1.078   0.128  0.0235  0.2607 -0.3008
    1W        W44505   6.150   4.482   2.377 -0.2116  0.0588  0.1262
    1W        W44506  20.861   7.993   1.812 -0.0065 -0.4768 -0.2500
    1W        W44507  23.462   7.078   2.517  0.0839 -0.1239  0.1111
    1W        W44508  23.179  22.398   0.514  0.1401  0.2979 -0.1468
    1W        W44509  28.986  10.020   8.963 -0.1692  0.1121  0.2690
    1W        W44510   4.019  27.693   2.006 -0.1923  0.0426  0.0774
    1W        W44511  22.268  29.718   8.453 -0.3728  0.0930 -0.1471
    1W        W44512  24.603   0.732   7.366  0.0501  0.5870 -0.1335
    1W        W44513  15.253   7.111   7.495  0.0622 -0.0543 -0.1539
    1W        W44514   9.265  11.429   8.937 -0.1975  0.3384  0.3570
    1W        W44515  23.683   9.793   1.741 -0.2925  0.0915 -0.2507
    1W        W44516   9.441  16.833   6.995 -0.1569 -0.1117 -0.1085
    1W        W44517   6.102   0.424   0.887  0.1774 -0.0863 -0.0295
    1W        W44518  26.974   6.638   8.257 -0.2718  0.3622  0.2031
    1W        W44519   4.896  19.210   2.499 -0.0583 -0.2745  0.2552
    1W        W44520  29.023  13.574   1.251  0.3316  0.2545 -0.0663
    1W        W44521  25.773   5.754   6.881 -0.2730  0.0796 -0.3445
    1W        W44522  10.120  26.739   2.634 -0.2041 -0.0782 -0.0407
    1W        W44523   9.186   7.703   2.724 -0.1154 -0.1332  0.0108
    1W        W44524   3.182  20.082   0.226 -0.1957 -0.0017  0.1827
    1W        W44525  15.670   9.116   8.650  0.1339 -0.0257  0.2203
    1W        W44526  13.815  10.779   1.856  0.1928  0.1833  0.0488
    1W        W44527   9.680   6.941   0.073  0.0046 -0.0570 -0.0282
    1W        W44528   3.858   8.332   2.403  0.3339  0.3856  0.0835
    1W        W44529  27.268   8.611   2.038 -0.1152  0.1663  0.0027
    1W        W44530  13.993  25.316   3.355 -0.0204  0.0866 -0.0851
    1W        W44531  27.614  13.136   1.136 -0.2153  0.0324 -0.0378
    1W        W44532  14.169  27.150   0.191  0.0782 -0.1451  0.0116
    1W        W44533  12.582  21.383   7.362 -0.0590 -0.1254  0.1274
    1W        W44534  10.408   8.697   2.364  0.1669 -0.1305  0.1390
    1W        W44535  29.076  14.584   6.749  0.0554  0.0768  0.1276
    1W        W44536  18.895   3.237   7.640  0.0565  0.0908  0.1006
    1W        W44537   3.863  18.739   1.811 -0.1914  0.1163 -0.2393
    1W        W44538  29.163  23.903   2.267 -0.1173  0.0873 -0.1797
    1W        W44539  18.847   2.237   1.520  0.0422 -0.1012  0.1150
    1W        W44540   8.099  16.256   9.067  0.2723 -0.1849 -0.1404
    1W        W44541  18.005   3.831   7.084 -0.0609  0.2664 -0.0768
    1W        W44542  21.683  22.164   0.114  0.0023 -0.1826  0.0073
    1W        W44543  28.477  17.175   1.723 -0.2406  0.2872 -0.0401
    1W        W44544  20.647  26.175   8.194  0.0114 -0.1926 -0.0294
    1W        W44545  22.474   3.745   2.543 -0.0733 -0.2251  0.3978
    1W        W44546   5.649   8.398   1.651 -0.1418 -0.0779 -0.0272
    1W        W44547   8.692   7.443   3.267  0.2787 -0.2900  0.2274
    1W        W44548  22.119  17.318   6.858  0.1934 -0.0246  0.0173
    1W        W44549   7.290  18.182   6.434 -0.2217  0.2083 -0.0144
    1W        W44550  11.648   4.302   7.471 -0.1336 -0.0723  0.2273
    1W        W44551  17.482  28.940   6.678 -0.0816 -0.2292 -0.0401
    1W        W44552   8.389  29.363   0.240 -0.1426 -0.0690  0.1290
    1W        W44553   6.486  23.409   7.778  0.0172 -0.4311 -0.0375
    1W        W44554   9.297  16.853   9.166 -0.0671 -0.0087  0.1159
    1W        W44555  15.438   2.851   7.788 -0.3702  0.1581 -0.2494
    1W        W44556  15.866  29.462   1.871 -0.2856 -0.2358  0.0974
    1W        W44557  19.092  16.618   8.128  0.1625 -0.1043 -0.1504
    1W        W44558   4.935   8.840   7.654 -0.0596  0.2756  0.4942
    1W        W44559  18.500  12.904   7.525  0.0699  0.0219  0.0986
    1W        W44560  11.703  11.851   2.371  0.0743 -0.0228  0.0737
    1W        W44561  18.007   6.584   8.202  0.0236  0.2323  0.2549
    1W        W44562   2.891   2.692   7.053 -0.0409 -0.0036 -0.0166
    1W        W44563  26.272  13.327   6.867  0.1592 -0.1963  0.0926
    1W        W44564   1.049  16.132   9.410  0.2730  0.2346 -0.1410
    1W        W44565   3.616  28.082   6.721 -0.2465  0.0185  0.2933
    1W        W44566   0.960   3.291   9.078  0.1681 -0.2168 -0.1050
    1W        W44567  20.511  26.900   9.414 -0.0967  0.0150 -0.2544
    1W        W44568  18.557  18.596   0.645  0.1760 -0.2476  0.2359
    1W        W44569  22.776  24.087   2.205  0.0735 -0.0495 -0.0337
    1W        W44570  28.035   1.550   8.993  0.2128 -0.0087  0.0789
    1W        W44571   4.067  27.288   0.710  0.5111 -0.0114 -0.1949
    1W        W44572   5.460   9.172   7.622 -0.0730 -0.2596 -0.2466
    1W        W44573   9.375  28.216   2.761 -0.2132  0.0526 -0.0893
    1W        W44574  21.994   6.917   7.839  0.0343 -0.2240 -0.2742
    1W        W44575  20.575   8.498   8.903  0.3140 -0.2191  0.2818
    1W        W44576  14.343   8.415   1.945 -0.0996 -0.1920  0.0039
    1W        W44577   0.058  11.528   1.163  0.0797  0.5699  0.1696
    1W        W44578  25.247   2.687   0.473 -0.0315  0.2519  0.3151
    1W        W44579  11.886  18.268   9.156 -0.1059 -0.2526  0.1785
    1W        W44580  18.263   5.951   2.613 -0.1233 -0.0155 -0.1812
    1W        W44581  27.125   4.453   1.809  0.0096  0.0342  0.0657
    1W        W44582   0.084   1.876   9.445  0.0423 -0.1090  0.0897
    1W        W44583  29.238  21.979   7.189  0.0347  0.0934 -0.0387
    1W        W44584  12.749  11.985   0.573  0.0544  0.0456  0.1826
    1W        W44585  27.717   2.471   2.934  0.0381 -0.1547  0.1685
    1W        W44586  10.374  17.073   7.539  0.0056 -0.0153  0.1702
    1W        W44587  21.120   2.906   9.132 -0.1434  0.2975  0.2201
    1W        W44588   5.975   2.000   3.068  0.0371 -0.3200  0.0104
    1W        W44589  28.535   2.753   2.507 -0.1234 -0.1527 -0.1559
    1W        W44590   9.405  15.804   1.851  0.3083  0.1363 -0.1720
    1W        W44591  22.985  12.617   2.043 -0.0808 -0.1629  0.1233
    1W        W44592   6.128  21.801   6.175  0.0204  0.0306  0.1881
    1W        W44593  17.202  20.295   1.799 -0.0725 -0.0982 -0.2206
    1W        W44594   1.658   6.934   2.468 -0.1155 -0.2093  0.1134
    1W        W44595  19.128   5.266   1.974 -0.0959 -0.0170  0.1182
    1W        W44596  28.125  10.482   2.529 -0.1191  0.3337 -0.1454
    1W        W44597   6.841  17.274   8.307  0.4666 -0.1493 -0.0879
    1W        W44598  15.613   6.302   1.818  0.0156  0.0727 -0.0969
    1W        W44599   1.465   0.080   3.359 -0.0383 -0.1321  0.0349
    1W        W44600  14.250   8.372   7.721  0.2772  0.2503 -0.3256
    1W        W44601   8.864   9.622   0.497  0.1227 -0.1880  0.0197
    1W        W44602  28.153  25.019   9.324  0.3157 -0.0338 -0.1167
    1W        W44603   3.455  25.627   8.015 -0.2178 -0.0226 -0.2266
    1W        W44604   6.792   5.142   8.258 -0.3554 -0.4368 -0.0495
    1W        W44605   5.476  22.821   1.532  0.0731 -0.0075 -0.0757
    1W        W44606  29.374   0.757   7.967  0.2621  0.0798 -0.0773
    1W        W44607  12.426  15.593   7.351 -0.4220  0.3212 -0.1243
    1W        W44608  18.714  21.022   6.829  0.0238 -0.0946 -0.2556
    1W        W44609  16.228  15.680   7.025 -0.0155  0.2876 -0.2118
    1W        W44610   4.014  12.791   2.234  0.1655  0.1343 -0.0402
    1W        W44611  25.100  19.259   0.916  0.0775  0.1855  0.2849
    1W        W44612  23.403  27.052   1.756  0.0324  0.0420 -0.1124
    1W        W44613  10.898  23.835   7.468 -0.2321  0.2814 -0.2482
    1W        W44614   1.835   8.071   2.522 -0.0077  0.0199 -0.3654
    1W        W44615  28.870  29.356   2.504  0.0910  0.0791 -0.1413
    1W        W44616   2.514  23.776   8.465  0.2324  0.0390  0.0018
    1W        W44617   9.045  24.009   8.599 -0.1530 -0.1546  0.1180
    1W        W44618  21.650  14.479   8.312 -0.0793 -0.0468 -0.0406
    1W        W44619  25.582  19.625   0.373  0.0648 -0.0752  0.0620
    1W        W44620   7.774  12.738   7.602  0.1440  0.0465  0.0533
    1W        W44621   6.534   5.517   1.785  0.1707 -0.0964  0.0532
    1W        W44622  17.938  21.074   0.927 -0.1770  0.3069  0.2052
    1W        W44623  16.526  26.924   1.890  0.0694 -0.3257 -0.1208
    1W        W44624   3.091  13.377   9.131  0.0529 -0.2009  0.2014
    1W        W44625  12.441  29.296   7.779 -0.2588 -0.0241  0.1631
    1W        W44626   0.121  13.826   7.351 -0.1577 -0.3642 -0.0808
    1W        W44627   0.717   3.224   1.961 -0.0091 -0.1107 -0.1093
    1W        W44628   9.429  23.441   1.884  0.2499  0.2534  0.3158
    1W        W44629   6.842  18.349   7.369  0.1648  0.4631 -0.0528
    1W        W44630   1.102   8.505   8.458  0.0259  0.1336  0.0305
    1W        W44631   5.412  15.400   6.724  0.3507  0.1144 -0.2039
    1W        W44632  23.160   3.313   8.901  0.0968 -0.2604 -0.2072
    1W        W44633   8.385  27.498   1.995 -0.0682 -0.0457  0.0956
    1W        W44634  24.043  19.360   1.528  0.1773 -0.0489 -0.1586
    1W        W44635  24.004   5.801   2.167  0.3660 -0.0216  0.2383
    1W        W44636  10.225  15.024   0.807 -0.0477  0.1686  0.2149
    1W        W44637  10.004  28.585   7.008  0.0490  0.1712 -0.3969
    1W        W44638  19.328   0.072   1.752 -0.1568  0.0253 -0.1629
    1W        W44639  25.820   3.853   8.755 -0.1037 -0.0047 -0.0914
    1W        W44640   6.017   5.891   9.292  0.0964 -0.0038  0.0092
    1W        W44641  17.324  13.195   8.135  0.0028 -0.2258  0.5337
    1W        W44642  29.300  26.113   0.185  0.1304 -0.0240  0.1231
    1W        W44643   1.908  14.651   1.304  0.0068  0.0435 -0.0086
    1W        W44644  19.390  22.489   1.630 -0.1627 -0.0121  0.0020
    1W        W44645   3.630  12.025   0.679  0.0304 -0.0656  0.0586
    1W        W44646  12.613  26.356   1.693  0.0194 -0.2886  0.1549
    1W        W44647   9.932  24.079   7.246  0.0588 -0.0230 -0.2187
    1W        W44648  26.789  11.786   1.559  0.2193 -0.0491  0.1313
    1W        W44649   7.174   2.212   1.537  0.0534 -0.0633 -0.3636
    1W        W44650   9.166   9.116   2.778  0.0108 -0.0096  0.0645
    1W        W44651  15.730   5.867   7.274  0.2129  0.0202  0.3123
    1W        W44652   2.820  12.209   1.919 -0.3711  0.0927  0.1015
    1W        W44653  16.557   7.891   6.756 -0.0339  0.0861  0.0376
    1W        W44654  13.340  25.447   8.018 -0.2061  0.1866  0.2177
    1W        W44655  27.849   0.335   7.240 -0.1408 -0.1839  0.0194
    1W        W44656  14.335  13.554   7.598 -0.0729 -0.2052  0.1466
    1W        W44657  10.803   4.019   0.650  0.1175 -0.0403 -0.0654
    1W        W44658  24.532  14.032   7.860 -0.0929  0.1338 -0.1037
    1W        W44659   0.140  20.136   1.610 -0.2111 -0.1786 -0.0775
    1W        W44660  23.110  19.194   0.051 -0.1479  0.0091  0.0257
    1W        W44661  19.652  27.146   1.119 -0.1844  0.0186  0.0466
    1W        W44662  22.266   1.410   0.896  0.0566 -0.0602  0.0523
    1W        W44663   4.130  20.645   2.219 -0.1616 -0.3396  0.2763
    1W        W44664  27.924  21.462   8.366  0.2433 -0.4043  0.1578
    1W        W44665  13.124  12.374   8.169  0.0025  0.1114  0.2196
    1W        W44666   9.402  25.578   0.943  0.1021 -0.1615  0.0167
    1W        W44667  21.104   5.004   0.156 -0.0563 -0.0328  0.2693
    1W        W44668   0.140   1.095   6.737 -0.0226  0.0505 -0.0922
    1W        W44669  27.753  25.743   7.575  0.0533  0.2008 -0.1714
    1W        W44670   7.641   9.693   7.372 -0.0979 -0.0826  0.2501
    1W        W44671  22.976   4.542   7.898 -0.0571 -0.1087 -0.0423
    1W        W44672  22.392  28.793   8.087  0.3774 -0.1853  0.3402
    1W        W44673  12.303  13.608   8.466  0.1260  0.1420 -0.0438
    1W        W44674   0.399  25.722   0.712  0.3983 -0.3482 -0.0291
    1W        W44675  21.797  28.379   2.011  0.0949 -0.1677 -0.1328
    1W        W44676  20.063   3.462   0.193 -0.2332 -0.0737  0.2140
    1W        W44677  28.613   4.679   2.711 -0.2692 -0.1554 -0.0740
    1W        W44678   3.837  16.128   8.249  0.0771  0.0515  0.0768
    1W        W44679  16.443  12.025   8.809 -0.1457  0.0425 -0.0091
    1W        W44680  18.086  19.845   1.730  0.0427  0.3393  0.3248
    1W        W44681  23.212  22.889   1.746 -0.0776  0.0996  0.2208
    1W        W44682  13.567  16.236   0.794 -0.0853 -0.1143 -0.2966
    1W        W44683  21.920  22.193   3.360  0.0907 -0.2160 -0.0482
    1W        W44684   9.417  16.308   1.876 -0.0602 -0.0510  0.0638
    1W        W44685   0.817  18.854   2.340  0.0887  0.2187  0.1269
    1W        W44686  11.680   1.800   3.367  0.0261  0.1432 -0.1703
    1W        W44687   1.245  19.612   0.389 -0.2484 -0.2785  0.3302
    1W        W44688  29.553  12.304   1.045  0.0783 -0.2510  0.1524
    1W        W44689  29.333  21.522   0.539 -0.1314 -0.0959 -0.1931
    1W        W44690  11.640  10.535   2.873  0.0998  0.0134 -0.3218
    1W        W44691  26.974   4.417   9.095  0.4342 -0.3659 -0.3280
    1W        W44692  29.813   4.254   2.372 -0.2198  0.1399 -0.2277
    1W        W44693  20.739  15.320   0.411 -0.1865 -0.1272  0.0203
    1W        W44694   4.300  14.731   7.082  0.2311 -0.1791 -0.0185
    1W        W44695  16.477   1.360   7.868 -0.1338  0.1123 -0.1146
    1W        W44696  18.267  18.393   6.811 -0.2898  0.2152  0.2965
    1W        W44697  12.426   2.909   2.790  0.1939 -0.0024  0.0944
    1W        W44698  11.044   4.153   2.307  0.2482  0.0337 -0.2121
    1W        W44699   2.965  27.652   7.978  0.2553  0.0090 -0.1759
    1W        W44700   0.598  14.642   8.310  0.1587  0.0007 -0.2751
    1W        W44701  19.989   3.946   0.381  0.2703 -0.1576  0.1700
    1W        W44702  14.911  27.658   8.612  0.0316 -0.4560 -0.0339
    1W        W44703   6.643  21.547   1.375  0.0266 -0.0386  0.1262
    1W        W44704  19.255  18.357   8.152  0.0641  0.1105  0.0309
    1W        W44705   4.585  19.057   0.334 -0.1110 -0.2736  0.2879
    1W        W44706   6.239  26.455   6.411 -0.1109  0.2177  0.0104
    1W        W44707   5.744   7.270   8.015  0.0132  0.0028  0.2171
    1W        W44708   3.673   3.072   7.748 -0.0287 -0.1344  0.3684
    1W        W44709  19.881  20.116   1.698 -0.0047  0.1404  0.3211
    1W        W44710  10.330  14.688   8.589 -0.2440 -0.0129 -0.0878
    1W        W44711  12.614   5.345   2.702 -0.0152 -0.0782 -0.0196
    1W        W44712  14.044   6.966   3.474 -0.1793  0.1768 -0.0907
    1W        W44713  27.984  13.741   6.752  0.2815 -0.0494 -0.1865
    1W        W44714  25.362   0.969   8.818 -0.0595 -0.0067 -0.2980
    1W        W44715  26.298  16.411   1.653 -0.1841  0.2647 -0.0740
    1W        W44716   1.431   4.066   0.541  0.0097  0.2144  0.1124
    1W        W44717  19.538   4.855   7.267 -0.0744 -0.0132 -0.0239
    1W        W44718   9.823   6.252   1.473  0.0980 -0.0036 -0.1205
    1W        W44719  10.148  11.373   8.125  0.0162  0.4507  0.1822
    1W        W44720   2.022   4.218   2.542  0.2601  0.0059 -0.0129
    1W        W44721   5.553   3.119   8.880  0.0913  0.0738  0.0606
    1W        W44722   6.146  29.403   9.120  0.0130 -0.1121  0.1179
    1W        W44723  11.032  25.478   8.584  0.0808  0.0423 -0.3131
    1W        W44724   9.057  26.676   6.315 -0.0383  0.2561 -0.0836
    1W        W44725   0.024  22.470   0.350 -0.0489  0.1834 -0.0026
    1W        W44726  20.243  26.637   1.595  0.0198  0.0737 -0.3321
    1W        W44727  12.993   9.611   1.930 -0.1699 -0.3008 -0.0742
    1W        W44728   4.950  26.206   2.099  0.0606  0.2159  0.3082
    1W        W44729   5.988  14.387   7.684  0.0807  0.1090  0.0578
    1W        W44730   9.064  18.275   1.749  0.0357  0.1106  0.0613
    1W        W44731  23.862  16.944   7.754  0.0092  0.1960 -0.0414
    1W        W44732  19.887  11.106   1.227  0.1703 -0.0850 -0.1869
    1W        W44733  20.751   7.727   1.376  0.3923 -0.1354  0.0648
    1W        W44734  29.805  29.151   9.048 -0.3250  0.0058  0.0071
    1W        W44735  20.978  18.105   1.675  0.2672 -0.3394  0.0753
    1W        W44736  25.883  29.166   7.550  0.3435  0.1763  0.2258
    1W        W44737   6.800  14.496   7.436  0.1358 -0.1710 -0.2153
    1W        W44738  11.237   2.400   1.720  0.0402 -0.0382  0.1711
    1W        W44739   5.795   2.698   8.995 -0.2146  0.1252 -0.0505
    1W        W44740   5.021   9.759   7.161 -0.1790 -0.1121  0.0955
    1W        W44741  10.123   0.360   0.622  0.1745  0.6483 -0.0366
    1W        W44742  22.507  14.120   8.438  0.0745 -0.1542  0.0199
    1W        W44743  25.764  20.830   7.089  0.1991  0.1636  0.1552
    1W        W44744   8.350   3.143   1.656  0.3651 -0.0070  0.1691
    1W        W44745   2.401  15.667   6.709  0.1196 -0.1457 -0.1199
    1W        W44746   1.746   8.336   7.459  0.0207  0.0034  0.0248
    1W        W44747   3.429  22.934   2.305 -0.2486  0.0911  0.0606
    1W        W44748  21.792  26.566   7.637 -0.1542 -0.1524 -0.1410
    1W        W44749  25.546  11.647   0.651  0.2060 -0.1729 -0.0500
    1W        W44750  23.418  28.000   2.776  0.0620  0.2829  0.0434
    1W        W44751  18.071  28.057   2.888  0.2585 -0.1287 -0.2064
    1W        W44752  15.751  24.419   2.009  0.0071 -0.3781  0.2798
    1W        W44753  28.556   8.557   0.792  0.2783  0.0026 -0.1020
    1W        W44754  14.415  26.286   1.482 -0.4551 -0.1466  0.1977
    1W        W44755  24.023  22.853   2.257  0.3632  0.1103  0.1663
    1W        W44756  24.577  21.671   1.967  0.0968 -0.0987 -0.3508
    1W        W44757  25.093  11.301   7.975  0.1131 -0.0427 -0.2219
    1W        W44758   3.550   2.285   9.226  0.0577 -0.3883  0.2385
    1W        W44759  13.940  27.398   3.287 -0.0061  0.4985 -0.1416
    1W        W44760   4.630  18.074   0.696 -0.0768 -0.0410  0.0371
    1W        W44761  20.232  14.983   1.520 -0.1438  0.0790  0.0763
    1W        W44762  20.246   6.631   8.132 -0.1710  0.3807 -0.1027
    1W        W44763  16.570  12.941   7.961  0.1374 -0.2585  0.0780
    1W        W44764  10.185  22.195   6.965 -0.0717  0.2850 -0.2400
    1W        W44765  25.511   3.625   7.481  0.0311  0.0306  0.1627
    1W        W44766   9.420  17.408   7.079  0.2116  0.0807  0.0001
    1W        W44767   7.205   1.907   0.218  0.0607  0.2423  0.1376
    1W        W44768   8.321  22.530   1.207  0.1253 -0.0722  0.3503
    1W        W44769  22.594   4.684   1.069  0.3933 -0.1882  0.1566
    1W        W44770  10.482  20.617   7.653 -0.0861 -0.1356 -0.0814
    1W        W44771  28.087  16.269   0.436 -0.3114  0.0607  0.4304
    1W        W44772   3.076  16.239   0.871  0.3076  0.1485  0.0675
    1W        W44773   1.549   8.826   7.351  0.1305 -0.0378 -0.1355
    1W        W44774  14.377  22.634   7.069  0.0691  0.0206  0.2415
    1W        W44775  11.827  23.884   9.316 -0.1157 -0.1242 -0.1139
    1W        W44776  23.354   6.810   3.000  0.1540  0.4827  0.0441
    1W        W44777  17.258   9.689   7.695  0.2624  0.0542  0.1305
    1W        W44778   6.450  21.401   0.918  0.1117  0.0578  0.1754
    1W        W44779   1.084  14.134   8.640 -0.0232 -0.1673 -0.0582
    1W        W44780  13.631  25.262   8.492 -0.1374 -0.2350 -0.1780
    1W        W44781  14.265  21.175   6.281 -0.2360 -0.1979  0.1394
    1W        W44782   0.546  24.601   2.135 -0.1163  0.0810  0.2515
    1W        W44783  28.958   8.647   0.538  0.0922  0.0448 -0.1137
    1W        W44784  23.363  13.460   1.764 -0.3911 -0.0535  0.1228
    1W        W44785  14.735   6.604   1.256 -0.0799  0.0695 -0.1070
    1W        W44786   7.342  26.777   1.062  0.0754  0.1331  0.3295
    1W        W44787   4.390   2.194   0.665 -0.0993  0.2585  0.0837
    1W        W44788  17.059  29.749   0.354  0.2372  0.0036  0.0041
    1W        W44789  14.976   4.345   7.788  0.0588  0.3864  0.2069
    1W        W44790   4.441  25.243   2.185  0.1990 -0.1094 -0.1344
    1W        W44791  27.828   0.928   0.313 -0.1821 -0.3124 -0.1334
    1W        W44792   3.856  28.143   2.246  0.2216 -0.3599 -0.0828
    1W        W44793  22.946  11.879   9.145 -0.0413 -0.0357 -0.0162
    1W        W44794  25.577   1.748   7.495  0.0939  0.2088 -0.0948
    1W        W44795  19.597  10.386   6.802 -0.0669  0.1616  0.0230
    1W        W44796  21.281  28.390   7.920  0.0533  0.2112 -0.1441
    1W        W44797   3.428  14.946   0.641 -0.1531  0.0416 -0.1968
    1W        W44798  19.156  16.742   7.490  0.0203  0.2749  0.3043
    1W        W44799  15.974  21.682   7.967  0.1078  0.0421 -0.1544
    1W        W44800   6.441  23.887   8.228 -0.0311 -0.4723  0.0208
    1W        W44801  12.887  16.248   7.119 -0.2865  0.1284 -0.0288
    1W        W44802  13.772  10.232   0.387 -0.0493 -0.1014 -0.1045
    1W        W44803  15.407  13.840   0.221  0.2589  0.3683  0.1858
    1W        W44804  13.047   4.968   0.771  0.0663 -0.1121 -0.2384
    1W        W44805  22.762  25.562   2.325 -0.1281 -0.0913 -0.0395
    1W        W44806  25.524   7.310   8.291 -0.3516 -0.0941  0.3107
    1W        W44807   0.552  16.480   1.755 -0.2250 -0.0042  0.0258
    1W        W44808   5.929   0.185   0.401 -0.0416  0.0401 -0.1169
    1W        W44809   6.601  20.212   0.999  0.1419 -0.2238  0.3054
    1W        W44810  25.079   0.228   7.928 -0.0820  0.0345 -0.2011
    1W        W44811  29.459   7.328   8.291 -0.1599  0.0256  0.3051
    1W        W44812   8.005   8.413   9.215 -0.0690  0.1205  0.0072
    1W        W44813  24.946  28.887   8.153 -0.0648 -0.1067 -0.1200
    1W        W44814  27.096  17.112   1.922 -0.1146 -0.0946 -0.1866
    1W        W44815  11.407   2.891   8.849  0.1907 -0.0384  0.1057
    1W        W44816  16.132   3.123   2.629 -0.2017 -0.0422  0.1135
    1W        W44817  20.239  18.026   0.326 -0.2002  0.0339  0.0501
    1W        W44818  24.472   2.231   3.173 -0.0338  0.0022  0.0992
    1W        W44819  22.706   0.557   7.994  0.3419 -0.0004 -0.3941
    1W        W44820  15.923  25.054   7.958  0.0594  0.2520 -0.2007
    1W        W44821  26.039   2.374   0.286 -0.1008 -0.0009  0.0212
    1W        W44822  22.485  15.689   7.919  0.1786  0.1756 -0.1614
    1W        W44823  27.160   8.078   0.168  0.3499  0.2380  0.3741
    1W        W44824   4.720   4.599   2.078  0.3294 -0.0747  0.2809
    1W        W44825  22.209   2.735   7.858  0.2256 -0.0420  0.0129
    1W        W44826   0.706  15.132   0.060  0.1303 -0.1306 -0.1738
    1W        W44827  25.867  17.758   7.130  0.0072  0.3180  0.1469
    1W        W44828   4.615   8.581   9.123  0.1377 -0.1594 -0.3123
    1W        W44829  28.360  14.180   5.830  0.0043  0.1491  0.0704
    1W        W44830  24.711   6.911   0.258  0.0795 -0.1151  0.2357
    1W        W44831   9.111   2.726   4.047  0.0765  0.2177  0.1060
    1W        W44832   5.337   2.246   3.771  0.2257 -0.3546  0.1727
    1W        W44833  23.575  13.660   6.626  0.2660  0.3187 -0.1714
    1W        W44834  26.221   4.158   0.170 -0.0222  0.1960 -0.0371
    1W        W44835  16.394  24.017   0.697  0.0638  0.1189  0.0266
    1W        W44836  11.076   3.334   8.256 -0.3844 -0.2065 -0.1522
    1W        W44837  13.401  21.016   9.134  0.2081  0.5218  0.3097
    1W        W44838  27.388  20.875   0.687 -0.0220 -0.0533 -0.1841
    1W        W44839   5.961  10.748   7.074  0.2420 -0.1166 -0.3434
    1W        W44840   8.517   6.440   3.316  0.0545 -0.1000  0.0992
    1W        W44841   3.556  11.535   1.529 -0.0118 -0.3695 -0.1297
    1W        W44842   0.158  28.171   6.520  0.1270  0.2059  0.0697
    1W        W44843  10.084  11.321   2.171  0.2547  0.0444  0.0775
    1W        W44844  16.984   1.221   8.723  0.1653  0.1755  0.2476
    1W        W44845  25.106  17.743   7.271  0.2034  0.0819  0.1072
    1W        W44846  10.476  25.521   2.573 -0.4163  0.0278 -0.0042
    1W        W44847  16.768   9.807   7.776 -0.0126  0.2685  0.2871
    1W        W44848  23.894  13.779   8.935  0.0412  0.3511 -0.1583
    1W        W44849   6.930  21.235   7.325  0.1341  0.0609 -0.1253
    1W        W44850   8.548   9.108   2.056 -0.1210 -0.2130 -0.0584
    1W        W44851   3.719  25.958   7.220 -0.1715 -0.2562 -0.0303
    1W        W44852  29.779  29.773   1.042  0.3774 -0.1775 -0.1140
    1W        W44853   0.119   4.633   0.432  0.0909  0.0164 -0.0776
    1W        W44854  10.330  26.930   7.001  0.1286 -0.1961  0.0713
    1W        W44855   5.235  18.046   7.574  0.1319  0.1876 -0.2514
    1W        W44856   5.812  28.626   8.296 -0.0092 -0.1182 -0.2178
    1W        W44857   3.601  27.289   1.738 -0.0311 -0.0176 -0.1350
    1W        W44858  24.369  24.683   8.897 -0.0967 -0.1504 -0.0494
    1W        W44859  13.487  15.093   7.681  0.0737  0.0135  0.1738
    1W        W44860  14.632  25.304   7.055  0.0540  0.0374 -0.3063
    1W        W44861  14.202  28.931   8.399  0.1039 -0.0393  0.0886
    1W        W44862  21.737  10.227   7.710  0.0256  0.0002  0.1533
    1W        W44863  19.499  13.981   6.668  0.1931  0.2008  0.0747
    1W        W44864  12.567  18.447   1.462 -0.2701  0.0333 -0.1423
    1W        W44865  20.720   3.892   8.649 -0.0951  0.2472 -0.0501
    1W        W44866  28.985  22.178   0.079 -0.3294  0.2630  0.0182
    1W        W44867  13.485  20.612   8.847  0.1990  0.5044 -0.1521
    1W        W44868   7.565  27.799   0.636 -0.0658 -0.1334  0.2538
    1W        W44869  11.580  26.070   0.689  0.1669 -0.2068 -0.0413
    1W        W44870   9.240   7.867   8.344  0.0156  0.0036  0.0932
    1W        W44871   0.001   7.068   8.508 -0.0533  0.0344  0.0191
    1W        W44872   5.055  11.411   1.333  0.1366 -0.0341 -0.0359
    1W        W44873   0.703  12.197   8.118  0.1239 -0.3568  0.0556
    1W        W44874  26.400  15.747   8.548 -0.0210 -0.0177  0.0129
    1W        W44875  13.395  24.606   6.061 -0.1816  0.3122 -0.1266
    1W        W44876  29.146  13.867   5.276 -0.0518  0.0857  0.1123
    1W        W44877   2.061  27.156   7.075 -0.1080 -0.2338 -0.0850
    1W        W44878  24.455  24.405   0.994 -0.3028 -0.3125 -0.2097
    1W        W44879  13.112   0.650   0.861 -0.4213 -0.0107  0.1703
    1W        W44880   5.496   4.434   7.800  0.1651  0.0870  0.2525
    1W        W44881  25.900  24.600   0.670 -0.1680  0.3150  0.0348
    1W        W44882  22.937   0.659   7.442  0.0828 -0.0617 -0.1822
    1W        W44883  14.939  28.668   0.132 -0.0745  0.1498 -0.0578
    1W        W44884  13.289  26.939   1.945  0.0754 -0.2422  0.1851
    1W        W44885  28.955  24.357   7.243 -0.0203 -0.0537  0.0212
    1W        W44886  22.391  19.155   1.715 -0.0760  0.2458  0.3598
    1W        W44887   7.971  23.875   9.417  0.3644  0.2209  0.0068
    1W        W44888  15.079  10.114   8.439 -0.0779  0.2716 -0.1732
    1W        W44889   3.084  23.484   9.138 -0.0027  0.2032 -0.0951
    1W        W44890  20.333  22.783   1.028  0.0051 -0.1973  0.0687
    1W        W44891  24.637   4.679   2.569  0.0695  0.2218  0.0400
    1W        W44892   2.758  24.165   0.891 -0.0004  0.1648  0.2389
    1W        W44893   9.132  19.780   0.265  0.0588 -0.1009  0.0603
    1W        W44894  17.254  10.540   7.870  0.1144  0.2384 -0.0853
    1W        W44895   7.574   3.075   2.428  0.4318 -0.1737 -0.2259
    1W        W44896  20.371   2.523   9.142 -0.0149 -0.0253 -0.0865
    1W        W44897  21.014   5.831   9.113  0.1209 -0.1307 -0.0309
    1W        W44898  21.549   4.172   1.839  0.1556  0.3718  0.2561
    1W        W44899  24.030  18.236   1.776 -0.0161  0.2279 -0.2199
    1W        W44900  24.744   9.162   1.124  0.0988  0.2241  0.1086
    1W        W44901  15.198  22.413   7.178  0.1801  0.2093  0.1436
    1W        W44902   7.893   2.681   0.026 -0.2360  0.0886  0.1028
    1W        W44903  21.278  13.840   9.067 -0.3018 -0.0159 -0.0270
    1W        W44904  14.061  19.311   0.991  0.0068 -0.0999  0.3001
    1W        W44905  15.769  21.361   1.915 -0.1154 -0.1439 -0.0611
    1W        W44906   3.924  28.870   1.397 -0.1257  0.3312 -0.1397
    1W        W44907  25.935  28.947   0.238  0.1964  0.0350  0.1844
    1W        W44908  10.260  13.767   8.684 -0.0997  0.0524 -0.0554
    1W        W44909  24.405  19.430   1.226  0.0044  0.3297  0.2218
    1W        W44910  21.234  18.410   1.195 -0.0756  0.0686 -0.0706
    1W        W44911  29.712  17.218   8.916 -0.1988 -0.0609 -0.0207
    1W        W44912  18.986  19.558   1.016 -0.0568 -0.2532  0.0656
    1W        W44913  21.663  25.330   7.327  0.0288 -0.4636 -0.0622
    1W        W44914  13.513   5.522   2.453  0.1080 -0.0194  0.1881
    1W        W44915   4.533  14.034   7.971  0.1213 -0.0110  0.1450
    1W        W44916  21.983   6.768   8.494 -0.0457 -0.1310 -0.0497
    1W        W44917  10.389  23.361   6.776 -0.1006  0.0121 -0.0818
    1W        W44918  29.028  21.443   2.493  0.2567 -0.2537 -0.1455
    1W        W44919   5.653  17.188   1.983 -0.0274 -0.1270  0.0047
    1W        W44920   1.071  15.534   6.186 -0.0335 -0.1210 -0.2285
    1W        W44921   1.160  11.144   0.119 -0.0306  0.0678 -0.3214
    1W        W44922  12.560  22.168   1.834 -0.0698 -0.1030 -0.1153
    1W        W44923   9.566  25.981   6.937 -0.0547 -0.3154 -0.3511
    1W        W44924  22.999   8.901   6.344  0.1377  0.1265 -0.2385
    1W        W44925  12.748  25.423   8.701 -0.0818 -0.5772  0.1846
    1W        W44926  24.019  19.536   2.303  0.4026  0.3015 -0.0646
    1W        W44927   3.864  17.120   6.577  0.1335 -0.0301  0.2853
    1W        W44928  18.430   6.832   0.043  0.0018 -0.0541 -0.1353
    1W        W44929  15.513  26.061   1.122 -0.1881  0.0744 -0.2653
    1W        W44930  17.395  26.827   3.065  0.1091  0.2592 -0.1639
    1W        W44931  12.137  26.024   1.952  0.1801  0.2419  0.1275
    1W        W44932   2.224  14.708   2.452  0.1754  0.0389 -0.1555
    1W        W44933   7.793  12.558   1.903 -0.0193  0.1584 -0.0893
    1W        W44934  19.254  17.424   1.092 -0.0966 -0.2907  0.1962
    1W        W44935   5.503   6.462   0.131 -0.2153  0.1110  0.0489
    1W        W44936   9.284  18.504   0.442  0.0067  0.0986 -0.0930
    1W        W44937  26.906  15.237   6.787  0.1561 -0.1138  0.1352
    1W        W44938  24.792   0.230   3.198  0.2225  0.0336 -0.1939
    1W        W44939  27.752   9.114   0.567 -0.3395  0.0199  0.1567
    1W        W44940   3.914  24.617   2.785  0.1475  0.0613 -0.0117
    1W        W44941  17.796  17.171   7.241  0.2863 -0.1736 -0.3357
    1W        W44942   1.282  10.707   1.864  0.0893  0.0974  0.0860
    1W        W44943  11.044  29.788   9.295  0.0841 -0.1086  0.2163
    1W        W44944  15.312   7.456   7.853  0.1118  0.4236 -0.1164
    1W        W44945  16.773   0.913   7.213 -0.2466  0.1873  0.1049
    1W        W44946  18.849  14.220   8.103 -0.3000 -0.3194 -0.4010
    1W        W44947  24.690   3.721   2.893 -0.0568  0.0200  0.1482
    1W        W44948  15.763   0.664   8.223 -0.0006  0.0306 -0.2266
    1W        W44949   5.728  25.096   0.850 -0.4782  0.0737 -0.1907
    1W        W44950  15.233   7.329   8.963 -0.1916  0.0242 -0.0676
    1W        W44951  29.325  28.921   2.632  0.3825 -0.1406  0.1911
    1W        W44952  14.049   2.260   1.461  0.0712  0.3133  0.0797
    1W        W44953   9.930   0.853   1.877  0.3741 -0.0593  0.0962
    1W        W44954  21.650  21.666   0.971 -0.4103 -0.0728  0.1954
    1W        W44955   2.882  16.139   1.671  0.4720  0.0020  0.0947
    1W        W44956  10.513  23.399   1.026 -0.2853  0.0214  0.4157
    1W        W44957  12.815  12.907   9.328  0.1569 -0.0489 -0.0929
    1W        W44958   8.440   7.689   2.477  0.0608 -0.2170  0.0212
    1W        W44959  11.994  11.184   8.647 -0.1324  0.1023  0.0712
    1W        W44960   5.644  14.428   8.859 -0.0469 -0.1636 -0.3413
    1W        W44961   9.494  12.489   2.114 -0.0445  0.0826 -0.1447
    1W        W44962  17.889   4.942   1.622 -0.0298  0.0796 -0.0195
    1W        W44963   5.322   8.906   8.992  0.0385 -0.2591  0.1747
    1W        W44964  22.308  21.327   0.685  0.0680 -0.0613 -0.2741
    1W        W44965   0.301  19.471   1.166 -0.0500  0.0934 -0.1140
    1W        W44966   0.705  10.171   3.288 -0.1982 -0.3483 -0.0103
    1W        W44967  28.259  28.438   1.434 -0.2095  0.0386  0.0540
    1W        W44968   3.759  23.197   6.527  0.1818  0.2325  0.1048
    1W        W44969   8.888  12.413   0.426  0.2538  0.1268  0.1513
    1W        W44970   1.843  22.297   1.771  0.1771  0.0274 -0.2889
    1W        W44971   6.090  14.627   9.071 -0.2608  0.1521 -0.0522
    1W        W44972  21.646  21.399   7.035  0.3158 -0.0755  0.0092
    1W        W44973  22.232  22.636   7.848  0.2356 -0.1426 -0.0182
    1W        W44974  26.306  12.935   8.735  0.1097 -0.2017 -0.0383
    1W        W44975  28.840   4.678   0.454 -0.1267  0.0466 -0.1926
    1W        W44976  24.715  29.129   8.929  0.1012  0.0578 -0.2504
    1W        W44977  26.703   2.878   1.906 -0.0101  0.0201  0.0217
    1W        W44978  22.298   0.119   2.390  0.3811 -0.0087  0.1024
    1W        W44979  21.483   1.424   1.940  0.2189 -0.2121 -0.0331
    1W        W44980  19.513   2.168   7.948 -0.0384 -0.3220  0.0267
    1W        W44981  22.472  28.501   8.551 -0.0555 -0.2159 -0.0389
    1W        W44982   5.461  13.256   0.656  0.1773 -0.0672 -0.2642
    1W        W44983   5.596  24.724   8.093 -0.1518  0.2796 -0.0887
    1W        W44984   5.259  25.174   0.952  0.1424 -0.2520 -0.0226
    1W        W44985  18.292   2.185   8.634  0.3240  0.0738  0.0285
    1W        W44986  21.124   5.451   9.449  0.0857 -0.1119  0.4425
    1W        W44987   7.798  28.142   2.190 -0.1230  0.1752  0.0200
    1W        W44988  26.440   3.291   1.762 -0.0385  0.0111 -0.1160
    1W        W44989  22.482   0.848   2.109  0.0207  0.2381 -0.2868
    1W        W44990  11.222  12.720   0.538 -0.1377 -0.0447  0.1060
    1W        W44991  11.983  10.467   0.587  0.0340  0.1432  0.1553
    1W        W44992  20.103  27.542   1.107  0.1005 -0.2639  0.0582
    1W        W44993   6.081  22.648   0.572  0.1965 -0.0703  0.0997
    1W        W44994   1.084  24.692   6.649  0.0326  0.0608  0.5803
    1W        W44995   1.590   6.586   9.209  0.0760 -0.3631  0.2284
    1W        W44996  28.857   7.830   8.093  0.1256  0.0374 -0.1618
    1W        W44997  12.809   1.488   7.563  0.3484  0.3467  0.0773
    1W        W44998  13.144  25.582   0.122 -0.0475  0.0045 -0.0815
    1W        W44999  19.267  21.070   2.912 -0.1121  0.0073 -0.1029
    1W        W45000   0.565  26.608   0.128 -0.2175  0.2091 -0.3109
    1W        W45001  15.022   5.149   7.511  0.1480 -0.1192 -0.0550
    1W        W45002  26.805  21.134   0.583  0.0941  0.1123  0.0498
    1W        W45003  26.992  22.419   2.458 -0.1794 -0.1230 -0.0516
    1W        W45004  17.271  15.777   1.699  0.0515 -0.1141 -0.3458
    1W        W45005  23.162  27.706   1.959  0.0663 -0.0749  0.0739
    1W        W45006  19.944   1.950   7.949 -0.1317 -0.3982  0.0447
    1W        W45007  28.044  27.079   7.210 -0.0304  0.2575  0.0738
    1W        W45008   0.511   6.055   7.753  0.5942 -0.0045  0.1226
    1W        W45009  26.799   8.775   8.964  0.1061  0.0402  0.0630
    1W        W45010  21.975   0.682   7.124 -0.1520 -0.1939  0.1996
    1W        W45011  15.671  16.593   1.944  0.0034 -0.0345  0.0601
    1W        W45012   9.003  20.435   8.504  0.2333 -0.2425 -0.0289
    1W        W45013  12.122  18.124   8.698  0.2549  0.0599  0.1809
    1W        W45014   9.693  26.891   7.979 -0.1806  0.1294 -0.1905
    1W        W45015  21.391  21.249   8.391  0.4252 -0.2662  0.1704
    1W        W45016   4.432  15.192   5.751  0.1853  0.2499 -0.1514
    1W        W45017  10.257  27.816   0.752  0.2437  0.1174 -0.0408
    1W        W45018  14.633   0.018   1.807 -0.0496 -0.0621  0.0827
    1W        W45019  28.658  27.429   8.255  0.1768  0.0536  0.1305
    1W        W45020  22.344  17.702   8.125  0.3242 -0.1474 -0.3973
    1W        W45021   8.466  19.059   7.727 -0.4947 -0.2730 -0.0756
    1W        W45022  20.958  29.298   6.970 -0.0676 -0.1282 -0.0936
    1W        W45023   8.778   1.732   7.972  0.0594  0.1851  0.0589
    1W        W45024  22.579  27.365   8.284  0.0197 -0.0062  0.0044
    1W        W45025  20.240  27.495   7.508 -0.4931  0.2707 -0.2171
    1W        W45026   4.536   3.204   9.204 -0.1852 -0.0879 -0.1237
    1W        W45027   1.600  13.161   8.331 -0.0380  0.0380 -0.0448
    1W        W45028   7.662  23.395   7.144  0.1828 -0.1566 -0.5169
    1W        W45029  21.497   0.372   8.544 -0.0306 -0.1660 -0.2038
    1W        W45030  19.655   4.632   9.389  0.2205  0.0328 -0.1284
    1W        W45031  22.837  10.491   0.085  0.1417  0.0293  0.2228
    1W        W45032  21.396  26.934   7.391  0.1472 -0.1612 -0.1226
    1W        W45033  10.547  22.122   1.832 -0.0181 -0.1157 -0.1249
    1W        W45034   2.809  12.146   0.588  0.0152  0.2363 -0.0062
    1W        W45035  11.560  28.425   1.879  0.1965 -0.0344 -0.0804
    1W        W45036   6.354   2.369   0.993  0.0372  0.1162  0.2685
    1W        W45037  26.439   7.904   8.118  0.1038 -0.0534 -0.1253
    1W        W45038   7.352  24.413   7.166 -0.2018  0.2209  0.1453
    1W        W45039  27.087  27.626   2.251  0.0715  0.1392 -0.0321
    1W        W45040   9.086  20.182   6.157  0.0763 -0.0947 -0.0586
    1W        W45041   3.455  22.861   6.243  0.1522  0.0004  0.0552
    1W        W45042  29.410  28.665   1.863 -0.0130  0.0116 -0.0058
    1W        W45043  28.072   9.594   6.249 -0.0282  0.2289 -0.0911
    1W        W45044   4.222   7.525   7.086  0.1778 -0.5217  0.0662
    1W        W45045   1.531  11.639   0.176  0.1798  0.2106 -0.0420
    1W        W45046   2.251  26.448   8.340  0.2121  0.1461 -0.0492
    1W        W45047  24.718  26.187   7.632  0.2641 -0.2181 -0.0598
    1W        W45048   8.340  24.919   1.286  0.1088 -0.0754 -0.1247
    1W        W45049   5.832  11.482   2.397  0.2248  0.1459  0.2499
    1W        W45050   7.734  26.076   9.143 -0.0594 -0.3828  0.0414
    1W        W45051   3.538  24.697   0.864 -0.0079 -0.1629 -0.1978
    1W        W45052  22.654  14.238   8.974  0.1719 -0.3696  0.1467
    1W        W45053  18.554  16.181   9.121  0.1016 -0.1752  0.1092
    1W        W45054  13.715  12.018   8.706 -0.1062 -0.0566 -0.2160
    1W        W45055  25.812   2.506   3.679  0.3760 -0.0306  0.1339
    1W        W45056  13.824  16.233   8.645  0.0272 -0.1216 -0.0654
    1W        W45057  11.901  27.595   7.106 -0.2589 -0.1696 -0.0480
    1W        W45058  28.457   0.683   8.368 -0.1711 -0.0805 -0.0197
    1W        W45059  13.780   3.813   2.358 -0.0463  0.2565 -0.1482
    1W        W45060  20.145  15.316   8.336 -0.1744  0.1559 -0.2115
    1W        W45061  26.317  29.259   8.924  0.2032  0.1171 -0.1369
    1W        W45062  19.885  29.199   8.875 -0.0360 -0.2644 -0.0100
    1W        W45063   3.127   4.373   8.547 -0.0321  0.0285 -0.2026
    1W        W45064  22.523  21.161   8.778 -0.0146  0.0665 -0.0029
    1W        W45065  21.215  26.560   7.651  0.0911 -0.1970 -0.1111
    1W        W45066  11.031   2.827   1.481 -0.1858  0.1122  0.1375
    1W        W45067   5.787   9.911   7.763  0.1080 -0.2665  0.0416
    1W        W45068  10.831  13.098   1.404  0.1013  0.0439  0.4144
    1W        W45069   0.837  13.399   2.031 -0.1834 -0.2941 -0.0485
    1W        W45070   9.658   7.703   8.524 -0.0800 -0.2491  0.1664
    1W        W45071   8.407   7.779   0.538 -0.1575  0.0022  0.1077
    1W        W45072  12.988  22.394   1.578 -0.1847  0.0579 -0.2761
    1W        W45073  28.852  20.650   2.128 -0.3975 -0.1302 -0.1412
    1W        W45074  10.680  13.598   0.329 -0.0490 -0.2686  0.1134
    1W        W45075  20.028  18.059   8.792  0.1727 -0.1753 -0.2144
    1W        W45076  13.053   9.709   8.186 -0.2386  0.3193 -0.2406
    1W        W45077   4.876  13.492   8.784  0.3288 -0.0562 -0.1699
    1W        W45078   8.663   6.353   3.881  0.3682  0.0496 -0.0044
    1W        W45079   8.312   7.312   0.731 -0.0746 -0.0379  0.0153
    1W        W45080  19.168  21.280   1.500  0.0243 -0.2046 -0.1018
    1W        W45081  22.155   1.655   3.519  0.1580 -0.1583 -0.1105
    1W        W45082  22.995  24.248   8.747  0.2173 -0.0429  0.2917
    1W        W45083  14.128  29.766   7.866  0.0399  0.0321  0.0620
    1W        W45084   0.459  22.054   0.722  0.1068 -0.0336  0.1982
    1W        W45085  10.434  23.339   7.587  0.2823  0.1635 -0.0277
    1W        W45086   5.448   6.176   7.693  0.1342  0.2405 -0.0555
    1W        W45087   3.765  12.347   7.204  0.0017 -0.0737  0.1702
    1W        W45088   1.025  22.094   0.564 -0.1853 -0.0406  0.1071
    1W        W45089  21.233  10.659   8.538  0.2428 -0.1414  0.1794
    1W        W45090  15.299  26.990   8.136 -0.2910  0.0034 -0.1465
    1W        W45091   4.535   4.356   8.405 -0.2964  0.0842  0.3101
    1W        W45092  15.351   5.307   0.784  0.0393 -0.1158  0.0469
    1W        W45093   4.310  23.249   1.189  0.0348 -0.0143 -0.2504
    1W        W45094  18.733  13.759   7.122 -0.0407 -0.2523 -0.0714
    1W        W45095  10.986   9.454   2.515  0.0958  0.0806  0.0886
    1W        W45096  14.212   7.340   2.634  0.1163  0.2409 -0.0841
    1W        W45097  21.716  20.877   2.775 -0.0776  0.3129  0.1914
    1W        W45098  26.811  27.064   7.727 -0.3564  0.0802 -0.2535
    1W        W45099  16.295  18.743   8.680  0.1285  0.2216 -0.0586
    1W        W45100  15.295  21.498   1.875  0.1216  0.1107  0.0341
    1W        W45101  23.839  26.399   8.675  0.0099 -0.1574  0.0605
    1W        W45102   5.519   5.694   7.165 -0.1151 -0.0494  0.1550
    1W        W45103  19.288  15.118   8.307 -0.2547 -0.3151  0.2269
    1W        W45104   6.101  26.866   0.710 -0.3030 -0.0268 -0.0633
    1W        W45105   5.169   2.911   6.687 -0.0823 -0.2612  0.2898
    1W        W45106  19.697   5.844   8.249 -0.0618  0.0567  0.1001
    1W        W45107   0.465   7.209   6.737 -0.1013  0.2741 -0.2549
    1W        W45108  16.680  20.247   1.689  0.3102 -0.2421 -0.1148
    1W        W45109  25.863   0.647   2.304  0.3790 -0.1926 -0.1186
    1W        W45110   9.892  16.221   1.355  0.0818  0.0806  0.2296
    1W        W45111  16.010   0.032   2.664  0.1162  0.0729 -0.3004
    1W        W45112  21.121  22.578   0.498 -0.1033 -0.1739 -0.1913
    1W        W45113  27.419  22.193   2.331 -0.3442  0.1572 -0.0385
    1W        W45114   2.099  10.930   8.307  0.1422 -0.1630 -0.1214
    1W        W45115  26.510  24.537   8.609 -0.1401 -0.1912 -0.0291
    1W        W45116  16.111  29.581   8.028  0.0522 -0.0467  0.1449
    1W        W45117  20.336   1.227   6.978  0.1006  0.2176  0.0919
    1W        W45118  29.593  29.720   0.133  0.1155  0.0238  0.0975
    1W        W45119  20.087  15.275   7.047  0.1388 -0.0838 -0.0131
    1W        W45120  29.344  23.578   6.475  0.1413 -0.2285  0.1047
    1W        W45121   9.629   7.066   1.615  0.0057 -0.0740  0.0886
    1W        W45122  27.923  23.273   5.645  0.0547  0.0666  0.2579
    1W        W45123  15.411  18.866   0.738  0.2047  0.0424 -0.2177
    1W        W45124  16.914  23.951   2.633  0.1412  0.1605 -0.3555
    1W        W45125  23.885  26.340   0.152  0.2784 -0.0032  0.0590
    1W        W45126  22.887   9.758   0.637  0.2147  0.1001  0.0407
    1W        W45127  20.811   5.548   7.050 -0.2896 -0.1703  0.1263
    1W        W45128  13.031   3.335   2.397 -0.3217 -0.0225 -0.1457
    1W        W45129   2.330   6.399   8.259 -0.2831  0.4435  0.0290
    1W        W45130   6.007   2.396   6.865 -0.2639 -0.1788  0.0652
    1W        W45131   5.744   9.733   0.188  0.0229 -0.0990  0.0849
    1W        W45132  29.690  12.925   0.645 -0.2167 -0.1434  0.1332
    1W        W45133   0.457  29.297   8.916 -0.0391 -0.2254 -0.2827
    1W        W45134   0.873  21.985   6.864  0.2007  0.1438  0.1038
    1W        W45135   5.624  29.681   9.082 -0.0150  0.2003  0.0657
    1W        W45136  14.644   0.052   2.831  0.1529  0.0584 -0.0430
    1W        W45137  17.386  15.354   1.395 -0.0184 -0.2097  0.0619
    1W        W45138   0.823  24.421   1.104  0.1693 -0.3288  0.1305
    1W        W45139  20.155  10.042   8.347  0.0617 -0.2430  0.2476
    1W        W45140  17.877  10.144   7.291  0.0416 -0.2224  0.0712
    1W        W45141   1.334   7.012   8.379  0.0090 -0.0889 -0.1515
    1W        W45142  15.545   3.945   6.202 -0.0691  0.0137  0.0421
    1W        W45143  23.069  20.827   1.528  0.2117  0.0579 -0.0662
    1W        W45144  13.621  27.258   0.275 -0.0166 -0.0784  0.0891
    1W        W45145  17.498  15.402   0.880  0.0089  0.0338  0.1400
    1W        W45146  27.082  28.448   0.253 -0.1070 -0.3096  0.0354
    1W        W45147  13.582  26.004   2.919 -0.1358 -0.1959 -0.0457
    1W        W45148  25.375  22.615   0.490 -0.0173  0.0112 -0.3348
    1W        W45149   8.739  20.158   1.423  0.0416  0.0208  0.4030
    1W        W45150   6.468   1.043   0.150  0.0297 -0.3547  0.0810
    1W        W45151   9.903   6.139   7.575 -0.2486 -0.2488 -0.1668
    1W        W45152   5.420   8.835   8.448  0.1246 -0.1467 -0.0900
    1W        W45153  10.406   1.251   3.274 -0.2785  0.0516  0.1384
    1W        W45154  26.568  18.368   8.529 -0.0992  0.0140 -0.1139
    1W        W45155  15.903  11.428   1.352 -0.1633 -0.1267 -0.0918
    1W        W45156  20.401  21.261   1.991  0.0624 -0.0205  0.1387
    1W        W45157  21.462   6.675   1.390 -0.1052 -0.2126 -0.0181
    1W        W45158   8.172  27.798   1.650 -0.2919  0.1304 -0.0024
    1W        W45159  10.821   7.353   8.289  0.3364 -0.1836 -0.0591
    1W        W45160  18.798  29.254   0.490  0.2231 -0.0285 -0.0066
    1W        W45161   0.742   5.733   9.456 -0.1659 -0.0832  0.1421
    1W        W45162  27.984  19.623   8.396 -0.1603  0.4463  0.4486
    1W        W45163  26.243   5.562   6.282  0.3157 -0.1561 -0.0506
    1W        W45164  14.006   5.891   6.902  0.2122  0.2278 -0.0555
    1W        W45165   6.715  16.133   2.623 -0.2635 -0.0614  0.3012
    1W        W45166   7.260  10.663   1.075  0.1635 -0.1696  0.2297
    1W        W45167   5.397  23.255   8.830 -0.1633  0.2241 -0.0172
    1W        W45168  27.684   0.614   1.078 -0.0039 -0.0277  0.1503
    1W        W45169   5.412  28.579   9.132  0.1593  0.2035 -0.1504
    1W        W45170  28.561   6.593   8.741 -0.0524 -0.1663 -0.2176
    1W        W45171  18.627  29.301   0.967 -0.0175 -0.0835 -0.2895
    1W        W45172   8.816  21.199   7.898 -0.1444 -0.1876 -0.1927
    1W        W45173  29.404  26.336   6.383  0.2105  0.2339  0.0767
    1W        W45174   5.951  20.617   6.590 -0.0099  0.2256 -0.0701
    1W        W45175   6.308  18.525   1.059  0.1366  0.2156  0.1031
    1W        W45176   7.377  23.315   0.235 -0.4449  0.2100  0.0793
    1W        W45177  20.141  27.898   2.049 -0.0344 -0.2365  0.0419
    1W        W45178   6.103  26.722   2.994 -0.0998 -0.1080  0.2113
    1W        W45179  11.538  24.808   1.352  0.2466 -0.2702  0.0593
    1W        W45180  27.175  25.360   8.910 -0.0213 -0.0992  0.0490
    1W        W45181  17.593  11.290   0.216 -0.1112  0.1568 -0.1203
    1W        W45182  18.752   7.576   8.666 -0.2307  0.0599  0.0012
    1W        W45183   0.584  13.148   5.783  0.3222 -0.1494  0.0291
    1W        W45184  14.375  13.799   9.367 -0.1003 -0.0816  0.3843
    1W        W45185  12.475  12.168   1.701 -0.1273 -0.0972  0.2152
    1W        W45186   5.252  16.174   9.272 -0.0296  0.0814 -0.0152
    1W        W45187  27.904   6.210   0.898 -0.0513  0.1828  0.0812
    1W        W45188  13.866   9.001   8.365 -0.3763 -0.0220 -0.0550
    1W        W45189  18.086  15.279   8.996 -0.0607  0.1605  0.1787
    1W        W45190   3.192   9.051   0.642 -0.0076 -0.0218  0.2473
    1W        W45191   8.704  22.454   0.846  0.1488 -0.1196 -0.1453
    1W        W45192   8.136   7.368   0.157 -0.5307 -0.0911 -0.0461
    1W        W45193  16.259   5.288   6.753  0.0682  0.0075 -0.4109
    1W        W45194   6.906  20.184   8.250  0.1064 -0.0028  0.0056
    1W        W45195  28.416  22.077   7.636 -0.2698  0.2763  0.3297
    1W        W45196  18.752  20.786   2.977  0.0669 -0.0339 -0.0556
    1W        W45197   1.785  16.230   2.710 -0.0199 -0.1105  0.0468
    1W        W45198   0.058  10.206   8.549  0.0790 -0.2267 -0.1854
    1W        W45199  21.327  27.860   0.647  0.2522 -0.0189 -0.0585
    1W        W45200  11.265   3.000   1.015  0.0482  0.2183 -0.2414
    1W        W45201  24.376   9.022   2.184 -0.0505 -0.0655 -0.0529
    1W        W45202  17.875   4.410   1.690  0.0435 -0.0191  0.2660
    1W        W45203  25.712   1.133   6.447  0.2130  0.0344  0.2932
    1W        W45204   1.996   7.174   6.348 -0.0819 -0.1571  0.0995
    1W        W45205  17.866  13.919   1.257  0.0500  0.3522  0.0381
    1W        W45206  29.810  26.668   6.555  0.3853 -0.0218 -0.1468
    1W        W45207   8.880  16.674   0.082  0.0405 -0.1080  0.0211
    1W        W45208  23.743  23.292   2.393 -0.2075  0.0851 -0.4591
    1W        W45209   2.273   6.200   1.379 -0.1885  0.0248  0.0853
    1W        W45210   8.869  16.587   9.036  0.0674 -0.1331 -0.0270
    1W        W45211  26.366   1.066   0.474  0.0125 -0.0458 -0.2668
    1W        W45212  18.968   5.200   1.491 -0.2224  0.0862  0.3197
    1W        W45213   2.572  28.114   7.559  0.2024  0.1859  0.1330
    1W        W45214  20.444   4.997   1.780  0.3298 -0.1807  0.1655
    1W        W45215   7.814  13.735   9.062 -0.2383  0.0748 -0.2051
    1W        W45216   4.652  26.025   0.265  0.1030  0.3500  0.0919
    1W        W45217  28.136  13.710   7.292  0.0229 -0.1750  0.1782
    1W        W45218   4.949  20.260   0.110 -0.0519 -0.1692 -0.4287
    1W        W45219  26.399  13.708   0.177  0.0991 -0.0537 -0.1386
    1W        W45220  11.308  26.735   1.979 -0.3002 -0.0279  0.2922
    1W        W45221  10.849   9.673   0.021 -0.0918  0.0370 -0.3103
    1W        W45222   0.866   8.819   2.166 -0.2944 -0.1241  0.0344
    1W        W45223   1.297  26.673   6.243  0.0736  0.0723  0.0702
    1W        W45224   0.135  19.938   6.962  0.0545  0.3145  0.0797
    1W        W45225  10.125   1.889   7.974  0.0561 -0.4592  0.0922
    1W        W45226   7.572  14.798   7.945 -0.0594  0.3247 -0.0445
    1W        W45227  20.794  15.795   7.251 -0.2945 -0.0064 -0.1354
    1W        W45228  28.150  20.521   1.321  0.0314  0.2210  0.3544
    1W        W45229  12.087  16.342   9.425 -0.0468 -0.2245  0.1065
    1W        W45230   0.734  10.191   9.423  0.1040  0.0173  0.1403
    1W        W45231  24.986  21.072   8.433  0.1604 -0.0313 -0.1824
    1W        W45232   0.336  14.333   8.706  0.1383  0.0862 -0.1679
    1W        W45233  23.423   8.433   1.214  0.1485  0.0196  0.0117
    1W        W45234   7.849  22.296   9.035  0.0768  0.0465 -0.3279
    1W        W45235   8.176   4.406   1.090 -0.1303  0.2190  0.1543
    1W        W45236  14.966  12.594   1.248  0.0593 -0.1171  0.2194
    1W        W45237   1.369  23.662   0.654 -0.1624  0.0904  0.0125
    1W        W45238  29.021  23.105   1.773  0.0106  0.0177  0.0211
    1W        W45239  29.547  22.494   0.763  0.1864 -0.1045 -0.1241
    1W        W45240   3.289  21.966   8.633  0.2196  0.1801  0.1158
    1W        W45241  14.495  13.242   8.905  0.0989 -0.2076  0.0539
    1W        W45242   2.611   6.080   6.798 -0.1489 -0.1741 -0.0944
    1W        W45243   5.049  10.106   7.576 -0.1281  0.1892  0.3983
    1W        W45244  27.548  29.579   8.639  0.0831 -0.3178 -0.0001
    1W        W45245  18.030  26.507   1.455  0.3564  0.2368  0.1468
    1W        W45246  17.539   0.901   8.782 -0.1798 -0.4215 -0.2111
    1W        W45247   7.157  26.736   7.391 -0.2197 -0.2271  0.0579
    1W        W45248  25.275  18.032   8.123  0.3162  0.0768 -0.1382
    1W        W45249  28.533   2.309   8.067  0.2132  0.1181 -0.1168
    1W        W45250  20.456  23.245   2.965 -0.0971  0.0689 -0.1721
    1W        W45251  20.260   1.646   0.568  0.0508  0.2801 -0.0056
    1W        W45252   1.543   0.095   8.639  0.1328  0.2932  0.0306
    1W        W45253  14.689  24.580   7.999  0.0491 -0.1549 -0.1188
    1W        W45254  18.143  18.514   7.807 -0.0717 -0.1410 -0.0080
    1W        W45255   5.374  12.912   1.476  0.0731 -0.0834  0.0978
    1W        W45256   8.502  23.487   9.082 -0.1582  0.1905 -0.0061
    1W        W45257   8.517  17.939   0.927  0.1986 -0.0539 -0.1368
    1W        W45258  16.676   3.303   0.614  0.2806 -0.3625  0.1783
    1W        W45259  20.671  24.504   0.167  0.4418 -0.2317  0.2431
    1W        W45260  24.666   9.917   9.059  0.0958 -0.0011 -0.1629
    1W        W45261  18.199  10.508   7.083  0.2254  0.1423 -0.1381
    1W        W45262  29.135  24.696   7.613  0.3117  0.0990  0.1676
    1W        W45263   1.089   5.685   1.561  0.1033 -0.2709 -0.1546
    1W        W45264  10.312  26.835   1.818 -0.1317 -0.1800  0.1740
    1W        W45265  23.518  28.034   1.668 -0.2629 -0.0687  0.3872
    1W        W45266  25.701  22.720   1.553  0.0771  0.0206  0.0085
    1W        W45267  18.695   7.379   0.028  0.1565 -0.1489 -0.1292
    1W        W45268   0.287   9.960   2.983 -0.2491 -0.0876 -0.1183
    1W        W45269  14.934  26.011   2.911  0.4452  0.0223 -0.2027
    1W        W45270  12.724   2.831   7.732  0.1411  0.1056 -0.0295
    1W        W45271   3.559  28.602   6.588  0.2039  0.0974  0.1718
    1W        W45272   2.223   2.793   2.063  0.0433 -0.1907 -0.4196
    1W        W45273   3.113  13.493   2.792 -0.1687 -0.3403 -0.0052
    1W        W45274   5.733   7.288   9.358 -0.0943  0.2629  0.1118
    1W        W45275   5.416  12.417   1.613  0.0267  0.1064  0.2047
    1W        W45276  13.454  19.247   0.697 -0.1407  0.0925  0.2521
    1W        W45277   1.751  12.348   6.469 -0.1121  0.0633  0.2878
    1W        W45278  24.280   8.538   6.551 -0.2662 -0.0623  0.0386
    1W        W45279  17.043  27.203   3.037 -0.0508 -0.0750  0.0674
    1W        W45280   0.011  25.466   7.688  0.2019 -0.1137  0.1289
    1W        W45281   2.390   7.858   1.919  0.1089 -0.2002 -0.0098
    1W        W45282   9.130  29.774   2.943 -0.1553  0.0331  0.1552
    1W        W45283   7.629  19.777   1.222  0.1102  0.0192 -0.1973
    1W        W45284   6.589  14.965   1.265 -0.1611  0.1008  0.2390
    1W        W45285  28.599   6.029   9.399 -0.0206 -0.0204 -0.2361
    1W        W45286  21.150  14.171   8.624  0.2074 -0.0477  0.0327
    1W        W45287   6.007  11.538   9.135  0.0558 -0.0107 -0.0628
    1W        W45288  17.673  12.785   1.177  0.0340 -0.1381 -0.1901
    1W        W45289  21.026   9.145   1.989  0.3444  0.1834 -0.3803
    1W        W45290  13.924  24.836   3.115 -0.0947 -0.2046 -0.1798
    1W        W45291  28.118  16.077   6.931  0.3566 -0.1055 -0.1884
    1W        W45292  26.674  20.464   2.141  0.0740  0.0291  0.0791
    1W        W45293  17.088  12.895   0.670 -0.0571  0.2270 -0.3451
    1W        W45294   3.564   2.517   7.617  0.0439 -0.0998  0.1589
    1W        W45295  24.953  18.114   2.201  0.3317 -0.1420 -0.0375
    1W        W45296   4.465  16.756   8.435  0.0173  0.0801  0.2471
    1W        W45297  14.385  17.881   8.518  0.4005  0.1730  0.0307
    1W        W45298  27.635  13.182   8.639 -0.2858  0.0266  0.1430
    1W        W45299  17.134  17.717   1.678  0.1119 -0.1072  0.1557
    1W        W45300   2.835   7.856   2.195  0.1721 -0.0190  0.0008
    1W        W45301  21.985  17.421   9.153  0.0892 -0.3320  0.3873
    1W        W45302   5.300   9.846   8.468 -0.2556 -0.2042 -0.0825
    1W        W45303  16.599  24.040   7.429 -0.1551 -0.0709  0.2571
    1W        W45304   2.668   0.059   0.857 -0.0067  0.0492  0.2398
    1W        W45305  16.312  11.214   1.156 -0.2179  0.1168  0.3099
    1W        W45306  29.526   8.238   6.931 -0.1715  0.1691  0.1319
    1W        W45307  22.936  17.151   1.473 -0.1955  0.0187  0.1653
    1W        W45308  14.427  19.942   7.434  0.0719  0.1275  0.1510
    1W        W45309  14.730  13.422   7.940  0.0736 -0.0942  0.0458
    1W        W45310  25.000  28.264   6.817 -0.0425 -0.1714  0.0089
    1W        W45311  27.587  11.593   2.777 -0.2046  0.3475  0.2236
    1W        W45312  22.802  10.233   8.724  0.1854  0.3163 -0.2003
    1W        W45313   0.060  23.945   9.396 -0.2086 -0.3458  0.0856
    1W        W45314  27.869  18.875   7.953 -0.0066 -0.2861  0.1034
    1W        W45315  16.896   7.673   6.441 -0.0779  0.0240  0.0797
    1W        W45316   0.486  12.121   2.998  0.2793 -0.0516  0.1906
    1W        W45317  11.290  20.245   0.149 -0.0529 -0.2142  0.3273
    1W        W45318  11.333   4.011   0.691  0.3231  0.0835 -0.2623
    1W        W45319  26.113   9.011   6.798  0.3404  0.0055 -0.0958
    1W        W45320  15.680  17.687   8.007 -0.1622 -0.0775 -0.1105
    1W        W45321  13.373  19.692   7.403  0.0051  0.0602 -0.1311
    1W        W45322  18.282  15.092   8.193 -0.1090  0.5217 -0.2194
    1W        W45323  23.205  12.655   7.556  0.0437 -0.4281 -0.0214
    1W        W45324  16.274   9.500   1.462 -0.2749  0.2947 -0.0815
    1W        W45325   9.949   6.620   1.859 -0.1176 -0.4426 -0.1287
    1W        W45326  19.351  26.555   2.931 -0.0209 -0.2403  0.1082
    1W        W45327  28.360  14.756   9.267  0.0993  0.0902 -0.0781
    1W        W45328  11.466  18.742   8.106 -0.0363 -0.1605 -0.1078
    1W        W45329  14.019   4.858   7.877  0.2451  0.1447 -0.1090
    1W        W45330  21.898   1.074   1.133  0.1493  0.2932 -0.2800
    1W        W45331   1.319   6.465   2.466 -0.2734  0.0745 -0.1701
    1W        W45332  24.633  23.448   7.713 -0.1820  0.1155  0.4017
    1W        W45333  28.258  27.516   7.293  0.1606  0.1448  0.4003
    1W        W45334  26.556  19.065   7.255  0.0026 -0.0127 -0.1646
    1W        W45335  14.439  20.610   8.085  0.0530  0.1035 -0.1790
    1W        W45336  24.759  26.649   1.413  0.3652  0.0860 -0.2358
    1W        W45337  21.789  22.504   6.845  0.2417  0.0748  0.0978
    1W        W45338   0.231  14.031   6.850 -0.0322  0.0656  0.1676
    1W        W45339  16.433  17.358   0.693  0.0083 -0.0610  0.0877
    1W        W45340  28.716  20.480   5.895 -0.1127 -0.2928  0.3204
    1W        W45341   2.015  27.866   1.028  0.1044 -0.0193  0.1074
    1W        W45342  23.804  23.594   1.546 -0.5000 -0.1682 -0.1201
    1W        W45343   6.987   1.730   8.851 -0.0294  0.1816  0.0402
    1W        W45344   5.370  16.516   8.235 -0.1348  0.0047 -0.0454
    1W        W45345  27.357  27.311   8.425  0.0562  0.1898  0.0159
    1W        W45346  28.136   5.889   7.174  0.1180 -0.1199  0.3385
    1W        W45347  13.090  19.632   1.739  0.0526  0.0113  0.2178
    1W        W45348   0.526   2.112   1.586 -0.2698  0.1248 -0.0563
    1W        W45349  28.319  28.974   1.179  0.0593  0.3335 -0.0002
    1W        W45350   2.288  29.144   0.602 -0.0642 -0.1812  0.0326
    1W        W45351  25.764  23.793   0.856  0.0728 -0.1426  0.0280
    1W        W45352  14.787  25.795   6.918  0.2161 -0.0374  0.1365
    1W        W45353  20.379  15.020   8.731  0.2033 -0.0344  0.0047
    1W        W45354  14.927  16.991   8.365  0.0089 -0.1272  0.1903
    1W        W45355  20.735  10.554   8.801  0.0062  0.0662  0.1225
    1W        W45356  13.993   0.357   8.129 -0.0352 -0.1303 -0.2471
    1W        W45357  11.194  16.813   8.534 -0.1847  0.0441 -0.0845
    1W        W45358   5.296   0.043   1.932  0.3136 -0.0455 -0.2299
    1W        W45359   3.454   9.059   0.057  0.0685  0.4680  0.0407
    1W        W45360  27.282  18.348   7.519  0.1228  0.1392 -0.1420
    1W        W45361  15.518  16.727   1.447 -0.0248  0.1668 -0.1282
    1W        W45362   4.304  12.920   6.771 -0.0645 -0.0659  0.1157
    1W        W45363  27.728  19.213   0.221 -0.3541  0.0969  0.0810
    1W        W45364  27.098   3.035   7.001  0.3170 -0.0762  0.1476
    1W        W45365  17.075  19.173   0.146 -0.2536 -0.0950  0.1027
    1W        W45366  21.210  24.772   7.081  0.0278  0.1152 -0.0195
    1W        W45367   3.821  15.817   0.066  0.3620 -0.0062 -0.0452
    1W        W45368   2.655   1.767   9.133 -0.1032 -0.1890  0.0063
    1W        W45369   2.049  10.801   5.746  0.1211 -0.0501 -0.1723
    1W        W45370   6.600  16.325   6.828  0.1120 -0.2460  0.1268
    1W        W45371   9.049  22.433   6.794 -0.0175  0.1982  0.2326
    1W        W45372  29.550  23.595   9.425  0.0627 -0.2920 -0.0811
    1W        W45373  29.770   9.865   8.930 -0.0606  0.0339  0.2250
    1W        W45374  14.642  19.665   7.062  0.0005 -0.0683  0.1908
    1W        W45375  10.158  15.763   1.412 -0.1201 -0.1051 -0.2752
    1W        W45376   8.452  21.988   1.193  0.3246  0.0228 -0.1542
    1W        W45377  14.401   1.769   2.610 -0.1802 -0.1232  0.0358
    1W        W45378  21.543   4.866   6.947  0.1477 -0.0885  0.0742
    1W        W45379  11.787  24.395   6.595 -0.3088 -0.1187  0.1854
    1W        W45380  20.014  25.313   8.928  0.1954  0.0871  0.0159
    1W        W45381  15.540  12.981   0.037  0.2377  0.0724 -0.1422
    1W        W45382  11.646   6.430   1.248 -0.0892 -0.1499  0.2691
    1W        W45383   6.400  27.044   7.708 -0.2647  0.2837  0.2095
    1W        W45384   6.051  25.728   6.547  0.2124 -0.1040 -0.0491
    1W        W45385  23.351  11.317   2.240 -0.0886 -0.1399  0.3713
    1W        W45386  10.560   2.218   1.401 -0.0919  0.2965 -0.2877
    1W        W45387  15.298   2.089   7.199 -0.2991 -0.2383 -0.1135
    1W        W45388   5.353  11.162   3.312 -0.0203  0.3936  0.4748
    1W        W45389  29.098  15.569   7.408 -0.0456  0.3800  0.2253
    1W        W45390   3.038   5.985   8.367  0.1267 -0.3345  0.0578
    1W        W45391   6.769   2.591   2.380  0.2036 -0.0418 -0.4956
    1W        W45392  23.787  14.355   7.915  0.0937 -0.2890 -0.1167
    1W        W45393  17.772  28.420   8.328 -0.0044 -0.2821 -0.0600
    1W        W45394  17.979  17.899   9.119 -0.0638  0.0776 -0.3424
    1W        W45395   2.037  24.862   5.988 -0.1377 -0.2643 -0.0270
    1W        W45396  20.562  25.867   2.670  0.1360  0.0192  0.2247
    1W        W45397  10.116   0.364   1.417 -0.0774 -0.2058  0.2077
    1W        W45398  16.881  12.067   7.460 -0.2317  0.5250  0.1602
    1W        W45399  24.608  20.407   2.662 -0.3437  0.3066 -0.1367
    1W        W45400  12.354  26.721   2.520  0.1980 -0.2198 -0.1581
    1W        W45401  16.840  22.199   8.916 -0.0282  0.1815  0.2528
    1W        W45402   6.958  27.825   7.736  0.1398 -0.3254  0.0948
    1W        W45403  13.092   9.812   7.590 -0.2149 -0.0607  0.1334
    1W        W45404   8.521  22.324   7.524  0.0802 -0.0927  0.0342
    1W        W45405  29.733   1.029   3.707 -0.0297 -0.2532 -0.0604
    1W        W45406  16.070   9.039   7.833 -0.5227 -0.0154 -0.0031
    1W        W45407  26.911   7.540   6.541 -0.0342  0.1846  0.0419
    1W        W45408  14.401   1.033   0.893 -0.1206 -0.0989  0.0581
    1W        W45409  18.449  17.035   2.045 -0.2025  0.1060 -0.0795
    1W        W45410   1.355  19.965   0.744  0.1372 -0.0836 -0.1820
    1W        W45411   9.443   0.133   0.136 -0.2172 -0.2831 -0.3891
    1W        W45412  12.265  27.607   8.836  0.1056 -0.2372 -0.1006
    1W        W45413  19.505  23.919   8.018  0.2477 -0.2007  0.2919
    1W        W45414  22.326  25.822   7.713 -0.2533  0.0139  0.0360
    1W        W45415  17.254  11.231   2.125 -0.1692 -0.1519 -0.0749
    1W        W45416   8.552  15.899   8.257 -0.2942 -0.1921 -0.0046
    1W        W45417  19.884   5.252   9.082  0.2328 -0.0636 -0.1011
    1W        W45418  14.404   0.772   7.392 -0.1712 -0.1950  0.0523
    1W        W45419   4.372  21.595   7.850  0.0337 -0.4033 -0.0772
    1W        W45420  23.723   5.211   3.086  0.0967 -0.0826  0.0981
    1W        W45421   4.889   2.035   0.705  0.0589 -0.2512  0.3276
    1W        W45422   1.478  21.878   1.821  0.1389  0.0828 -0.2254
    1W        W45423  11.558   7.835   2.267 -0.3295  0.1716 -0.0126
    1W        W45424   2.587   3.094   0.643 -0.0283 -0.3167 -0.1793
    1W        W45425  16.023  25.787   1.197  0.2088  0.1109 -0.0562
    1W        W45426   6.558   7.479   2.138  0.0171  0.0202  0.1133
    1W        W45427  27.335  28.782   1.560 -0.0952 -0.2660 -0.1260
    1W        W45428  23.322   0.040   1.360 -0.2424 -0.2140  0.0795
    1W        W45429  19.991  13.049   1.409 -0.0371  0.3410 -0.1887
    1W        W45430   1.829  12.721   8.439  0.1401 -0.0433 -0.2570
    1W        W45431   0.866   4.397   1.099 -0.0870 -0.0873 -0.0711
    1W        W45432   2.890  13.322   0.906 -0.0285  0.1853 -0.0686
    1W        W45433   4.844  17.097   8.357 -0.1653 -0.3096 -0.1141
    1W        W45434  20.289  25.033   7.116 -0.1306 -0.0370  0.1435
    1W        W45435  25.767   5.097   1.797  0.2946 -0.2715 -0.4651
    1W        W45436   3.659   4.152   1.568  0.0212 -0.0517  0.0494
    1W        W45437  21.242   2.564   1.107  0.0009 -0.1467 -0.2176
    1W        W45438  11.476   5.355   3.446 -0.0098  0.3676  0.0444
    1W        W45439   4.622  12.141   0.683 -0.0078  0.1042 -0.1925
    1W        W45440  11.872   9.779   2.667 -0.1871 -0.2136 -0.0100
    1W        W45441   9.498   7.011   1.150  0.1121 -0.3733  0.2334
    1W        W45442   5.529  16.434   0.856  0.3136 -0.0537  0.0643
    1W        W45443  10.464  11.606   1.866  0.1076 -0.0531 -0.1916
    1W        W45444  25.418  14.553   9.140  0.1279 -0.1923 -0.0781
    1W        W45445   4.060   0.705   6.961  0.1612  0.4467 -0.0196
    1W        W45446  18.241   8.259   7.066  0.0481 -0.0602 -0.0783
    1W        W45447  16.688  21.100   6.999 -0.0183  0.0163 -0.0649
    1W        W45448   5.553   5.523   8.005  0.0331  0.0285 -0.4177
    1W        W45449   5.143  14.180   1.836 -0.2010  0.0873  0.2368
    1W        W45450  21.177   4.590   1.666 -0.2541  0.0152  0.2410
    1W        W45451  23.620  28.751   1.621  0.0381  0.2806 -0.2475
    1W        W45452   6.540  12.048   6.784 -0.1284 -0.0221 -0.1419
    1W        W45453  14.148  22.231   6.379 -0.3182  0.0584  0.2603
    1W        W45454  22.007  15.566   7.806  0.1054 -0.1526 -0.1092
    1W        W45455  29.744  19.679   1.471  0.3483 -0.0071 -0.1376
    1W        W45456   9.075  14.791   7.298 -0.0859 -0.1872 -0.0606
    1W        W45457  12.573  16.463   9.211 -0.0580 -0.1331 -0.4171
    1W        W45458   4.995  18.367   5.762  0.0515 -0.1913  0.1582
    1W        W45459  21.326  29.813   2.329  0.0834 -0.1114  0.1277
    1W        W45460  17.579  19.824   0.858  0.2364  0.2551 -0.2409
    1W        W45461  10.018  11.799   8.400  0.0494  0.0798  0.2221
    1W        W45462   9.876  12.265   0.921 -0.3191 -0.1379  0.1757
    1W        W45463  18.886   9.249   1.844  0.0144  0.2576 -0.0165
    1W        W45464  15.409   2.790   3.221 -0.0855  0.0706  0.2976
    1W        W45465   6.483  10.212   2.264 -0.1221 -0.0394  0.2787
    1W        W45466  12.501  24.321   5.925 -0.0012 -0.1389 -0.3498
    1W        W45467  20.478  11.804   1.960 -0.0686  0.1732  0.2284
    1W        W45468  28.523  21.340   6.803  0.1213  0.2011  0.2688
    1W        W45469  17.335  28.681   8.267  0.2478  0.0212 -0.0981
    1W        W45470  22.433   9.644   1.369 -0.2716  0.2121  0.0396
    1W        W45471  16.468   2.283   1.113  0.0748  0.1615 -0.1757
    1W        W45472   7.029   7.622   2.882 -0.2224  0.1321 -0.2109
    1W        W45473   8.394  23.227   6.493 -0.2414  0.1367  0.1370
    1W        W45474  27.293   2.333   7.421 -0.0168 -0.0547  0.2005
    1W        W45475   4.629  11.417   6.349 -0.1957  0.1981 -0.0448
    1W        W45476   3.005   0.725   6.647 -0.2018  0.2877  0.0129
    1W        W45477  15.647  29.234   2.376 -0.1908  0.3152  0.3230
    1W        W45478  18.517   7.970   8.995 -0.0560 -0.4285 -0.3606
    1W        W45479  26.637  15.584   8.132 -0.3433  0.0782 -0.1808
    1W        W45480  28.444  29.690   2.543  0.0509  0.0603 -0.1915
    1W        W45481  24.576  24.806   1.967  0.0784 -0.0276 -0.2550
    1W        W45482   5.131   5.115   1.028  0.2923  0.2981  0.2307
    1W        W45483  26.786  13.177   1.905 -0.1444 -0.1566 -0.1954
    1W        W45484  25.188  20.208   2.353  0.1358  0.0361  0.1093
    1W        W45485  25.745   2.242   7.210 -0.1995 -0.2031 -0.1479
    1W        W45486   0.624   5.199   0.238  0.3899 -0.0474 -0.1991
    1W        W45487   0.792  27.099   6.910 -0.1306 -0.4456  0.0979
    1W        W45488  21.894  10.335   0.278  0.2187 -0.0097  0.1310
    1W        W45489  25.121  11.913   0.496 -0.0362  0.0037 -0.1883
    1W        W45490   7.770  11.560   2.078 -0.1650 -0.0982  0.0949
    1W        W45491  22.506   5.928   0.947  0.2772 -0.0051 -0.0382
    1W        W45492  15.352  28.844   2.841  0.0775  0.1006 -0.1889
    1W        W45493   7.390  22.573   1.150  0.3241  0.0121 -0.2810
    1W        W45494  11.327   9.040   7.079  0.3081  0.2031  0.0019
    1W        W45495   3.456  27.356   0.930 -0.1396 -0.1231  0.1260
    1W        W45496  20.005   1.153   7.899  0.0400 -0.2163 -0.3650
    1W        W45497  13.744  10.292   9.250  0.0177  0.0780 -0.0977
    1W        W45498  28.653  20.632   2.766 -0.1432  0.0894 -0.1816
    1W        W45499  29.503   3.411   0.374 -0.1400  0.1851 -0.0318
    1W        W45500   9.448  25.148   0.513  0.3179  0.0092 -0.1198
    1W        W45501   5.059  13.773   8.043 -0.1038 -0.4013  0.0676
    1W        W45502   6.821   1.615   3.124  0.0280 -0.1529  0.0589
    1W        W45503   0.615  17.924   7.482  0.1368  0.1438  0.1676
    1W        W45504  10.206  20.078   8.023 -0.1609  0.1903 -0.2679
    1W        W45505   5.556   0.209   1.313 -0.1720 -0.0248 -0.3267
    1W        W45506   6.909  28.322   7.564  0.2691  0.2166 -0.3258
    1W        W45507  29.710  20.236   8.287 -0.0215 -0.0497  0.2374
    1W        W45508   8.308  24.708   8.859  0.2484  0.1030  0.1288
    1W        W45509  13.410   6.743   2.415 -0.0003  0.0214  0.4071
    1W        W45510  13.342  11.309   7.929 -0.0207 -0.2339  0.1262
    1W        W45511   6.533   3.099   7.902 -0.1203 -0.0589  0.2791
    1W        W45512  18.760  25.677   1.769 -0.0836 -0.1258 -0.3139
    1W        W45513  24.882  13.557   6.490 -0.2202  0.0040 -0.0899
    1W        W45514  20.005   8.954   6.440 -0.0915 -0.0612 -0.0139
    1W        W45515   5.072   5.857   2.489  0.2174 -0.1641  0.0642
    1W        W45516  22.913   2.103   1.853 -0.2721  0.1807  0.0926
    1W        W45517  22.831   2.248   0.016  0.0784  0.0478 -0.0741
    1W        W45518  13.782   9.941   0.832 -0.1006 -0.0396 -0.0383
    1W        W45519  19.751  19.071   8.500 -0.1546 -0.4886  0.2208
    1W        W45520  27.340   3.254   7.521 -0.1139  0.2784  0.2185
    1W        W45521  18.559  19.478   1.747  0.0367  0.3379 -0.2746
    1W        W45522  12.122  17.698   7.067 -0.1352  0.3190 -0.1028
    1W        W45523   5.522   9.530   6.972  0.0339  0.0193  0.2834
    1W        W45524  14.613  29.593   7.981 -0.0302  0.0453 -0.2006
    1W        W45525  14.319  27.329   9.200  0.2582  0.1724 -0.0539
    1W        W45526  24.910  26.088   1.303  0.0754  0.0559 -0.1144
    1W        W45527  29.167   9.437   8.470 -0.1189  0.3699  0.0003
    1W        W45528   5.545   8.447   8.730  0.0532  0.1505 -0.1063
    1W        W45529  18.569  15.964   0.729 -0.0351  0.3526  0.2526
    1W        W45530  16.828  19.862   0.559 -0.1464  0.0925 -0.1570
    1W        W45531  19.084  24.859   2.164 -0.0467 -0.1649 -0.2235
    1W        W45532   5.961  14.138   6.276 -0.0767 -0.1797 -0.0703
    1W        W45533  28.458   1.347   8.434 -0.0338  0.1764 -0.0092
    1W        W45534  22.188   5.595   1.759  0.1838 -0.0782  0.0937
    1W        W45535  12.968  29.089   8.312  0.0439 -0.2446 -0.0515
    1W        W45536  14.587   9.490   8.574 -0.2438 -0.1111  0.0327
    1W        W45537   3.176  25.877   1.210 -0.0465  0.0927 -0.0095
    1W        W45538  14.611   7.482   2.229  0.0061  0.0268 -0.0994
    1W        W45539  20.531   3.060   7.496  0.1356 -0.2474  0.0818
    1W        W45540  10.191  29.191   7.974 -0.0880  0.0202 -0.0704
    1W        W45541  19.161  25.012   9.036  0.0189 -0.0724 -0.0649
    1W        W45542   3.829  21.231   1.550 -0.1960 -0.0273  0.0816
    1W        W45543  14.155   0.427   7.577  0.1094  0.0521  0.1070
    1W        W45544  13.135   0.168   7.546 -0.0236  0.2719 -0.1167
    1W        W45545   8.105  20.394   5.886 -0.1440  0.1474  0.2516
    1W        W45546   2.849   9.609   9.103 -0.2416  0.0279  0.1897
    1W        W45547  14.100  16.713   7.824 -0.0249  0.1705  0.3562
    1W        W45548   8.464  10.205   3.052 -0.0892 -0.0908  0.0527
    1W        W45549   6.397   4.393   0.563 -0.1435  0.1382  0.2839
    1W        W45550  22.024   3.923   1.401 -0.0905  0.0896  0.1888
    1W        W45551   7.605   7.178   7.879  0.1069  0.2720 -0.1919
    1W        W45552   9.139  23.147   0.259 -0.1547 -0.0022 -0.1917
    1W        W45553  22.728  28.304   7.794  0.2997  0.1759  0.1185
    1W        W45554  23.303   5.403   7.369  0.0233  0.0958  0.1197
    1W        W45555   0.913   4.814   8.206 -0.3818 -0.1509  0.0010
    1W        W45556   4.666  26.497   2.395 -0.1809  0.0052 -0.0631
    1W        W45557   2.210   5.909   7.972 -0.1383  0.1390  0.0389
    1W        W45558  19.647  23.977   8.587 -0.2470 -0.0152 -0.1556
    1W        W45559  23.482   0.514   7.399  0.0941  0.0781 -0.0013
    1W        W45560  27.264   1.898   7.106  0.1824  0.3514  0.0399
    1W        W45561  12.296   7.326   8.417 -0.2127 -0.0697  0.0875
    1W        W45562   3.925   7.526   8.277 -0.0666 -0.1290 -0.1241
    1W        W45563  10.530   1.898   7.742 -0.2004  0.0047 -0.3306
    1W        W45564   0.850   1.937   6.795  0.1788 -0.2901  0.1459
    1W        W45565   8.780  21.848   7.785 -0.0380 -0.1385  0.0066
    1W        W45566   1.897  25.281   0.630  0.0337  0.4276 -0.1242
    1W        W45567  13.692  11.079   6.431 -0.1652  0.2672 -0.0006
    1W        W45568   5.676  14.480   8.333  0.0704  0.0262 -0.3523
    1W        W45569  18.372   4.192   7.106  0.1299 -0.1348 -0.1164
    1W        W45570  25.397  22.727   9.026  0.1266 -0.1967  0.1000
    1W        W45571  16.493   9.809   0.705  0.0313  0.0620 -0.1422
    1W        W45572   3.343  23.194   0.383 -0.0319 -0.1084 -0.0293
    1W        W45573   6.167   1.929   2.264 -0.1731  0.0482  0.3066
    1W        W45574  19.044  26.697   7.169  0.1876  0.0116 -0.0364
    1W        W45575   8.119  13.119   8.269 -0.0935 -0.3735  0.1677
    1W        W45576  16.170   3.864   1.936 -0.1670 -0.0815  0.0125
    1W        W45577  24.827   4.868   1.783  0.0388  0.1742 -0.0349
    1W        W45578  26.215   5.773   0.712 -0.0941 -0.0777 -0.0088
    1W        W45579   1.548  19.386   6.540  0.0911  0.0113 -0.1623
    1W        W45580   6.676   7.639   6.644 -0.1823 -0.3411 -0.1910
    1W        W45581   9.047   8.112   1.846 -0.0882 -0.1775 -0.1396
    1W        W45582  17.673  11.677   6.668 -0.1758  0.0982  0.0437
    1W        W45583   7.080   3.969   0.082 -0.1750  0.0014 -0.0167
    1W        W45584  18.704  28.184   7.949  0.1689  0.0852 -0.4453
    1W        W45585  13.486  21.817   7.367  0.3627  0.0042 -0.0284
    1W        W45586   7.113  15.269   0.603  0.0059 -0.3387 -0.2657
    1W        W45587  29.458   1.741   2.916 -0.0417  0.3300  0.4335
    1W        W45588   1.520  28.155   6.255  0.2455  0.1976 -0.1946
    1W        W45589  21.898  25.569   7.773 -0.3416  0.1235 -0.3029
    1W        W45590  24.954  17.266   1.409  0.0785 -0.2629 -0.1492
    1W        W45591   4.525   5.612   2.903  0.0839 -0.0709 -0.1278
    1W        W45592   2.965  29.357   0.512  0.3164  0.0546 -0.3554
    1W        W45593  20.020   7.841   8.077  0.0332  0.0496  0.0107
    1W        W45594   0.702  27.088   0.053 -0.0900 -0.0179 -0.2720
    1W        W45595   2.127  20.547   0.706  0.0837  0.1166 -0.0688
    1W        W45596   0.457   0.371   8.568 -0.0484  0.1345  0.2829
    1W        W45597  11.411  14.794   0.020  0.0579 -0.2884  0.1585
    1W        W45598  20.727   1.563   0.912 -0.0464 -0.0614 -0.1595
    1W        W45599  12.994  10.417   1.964 -0.1420  0.0929 -0.1449
    1W        W45600  24.264   4.011   2.775  0.0151 -0.1370  0.0086
    1W        W45601   4.680  25.679   7.426 -0.0935 -0.1962  0.0965
    1W        W45602   6.568  24.117   6.816  0.0209 -0.1889 -0.0180
    1W        W45603  26.146  13.666   6.522 -0.0084  0.1877 -0.0011
    1W        W45604  22.103  11.020   1.738  0.2045  0.2662 -0.2485
    1W        W45605   1.256   7.272   9.236  0.0714 -0.4123  0.0286
    1W        W45606  17.933  28.116   0.998  0.1560  0.1813 -0.0516
    1W        W45607  26.729  12.028   6.821  0.2825 -0.1491 -0.0637
    1W        W45608   5.441  15.012   6.943  0.1111  0.0585  0.0409
    1W        W45609  13.390   1.321   2.743 -0.0786  0.1380 -0.2570
    1W        W45610  19.491  13.687   1.779  0.0059  0.1000 -0.1831
    1W        W45611   4.433  20.591   8.853 -0.0406 -0.1951 -0.0182
    1W        W45612  13.246  21.178   0.220  0.1254  0.3897 -0.0311
    1W        W45613  17.567  13.760   1.606 -0.0599  0.1761  0.1492
    1W        W45614  12.139  21.154   2.104  0.0244 -0.0670 -0.1184
    1W        W45615  20.728  25.394   1.652 -0.3632  0.1145  0.1532
    1W        W45616   5.053  27.852   8.687  0.2486  0.1162 -0.1973
    1W        W45617   2.251   0.465   7.911  0.4024 -0.2500  0.4099
    1W        W45618  10.298   9.688   2.740  0.1874 -0.1687  0.1506
    1W        W45619  18.496   2.292   9.109  0.0036  0.4100 -0.1819
    1W        W45620  22.669  12.670   7.255  0.0372  0.3281  0.2546
    1W        W45621  22.097   9.015   2.640  0.1281  0.0519 -0.1969
    1W        W45622  22.943  25.987   8.256  0.1189  0.1122 -0.0057
    1W        W45623  25.806  14.367   8.263  0.1118  0.0950  0.0154
    1W        W45624  22.875   7.255   2.659  0.1250  0.0904  0.0454
    1W        W45625   4.857   2.957   1.149  0.1478 -0.2321 -0.0142
    1W        W45626  11.728  22.828   7.889 -0.2784 -0.0131  0.0630
    1W        W45627  22.071  10.854   0.849  0.1619  0.0715  0.3150
    1W        W45628  15.732  29.022   7.109  0.1496 -0.1432 -0.1297
    1W        W45629  16.501  20.203   2.570 -0.1730  0.0769 -0.0014
    1W        W45630   4.243  11.104   8.358 -0.2709 -0.1064 -0.0565
    1W        W45631  22.770   9.479   9.282  0.2213 -0.0737  0.0438
    1W        W45632  26.132   0.476   3.292 -0.2254 -0.1903 -0.1156
    1W        W45633  28.665   5.205   0.393 -0.3951 -0.0577 -0.1797
    1W        W45634   8.667   0.444   8.920 -0.1584  0.0303  0.3403
    1W        W45635  24.120  28.165   1.136 -0.0623  0.0601 -0.1263
    1W        W45636  28.819  27.104   6.363  0.2047  0.2069  0.1179
    1W        W45637  24.916   8.810   2.313  0.3803  0.1797  0.0225
    1W        W45638  24.457  15.260   7.344  0.1974 -0.4197  0.2697
    1W        W45639  17.728  10.412   8.109  0.0064  0.1511  0.1460
    1W        W45640  17.626  29.503   6.765 -0.0356 -0.4552 -0.0661
    1W        W45641  17.354  14.188   8.185 -0.1609  0.0005 -0.0776
    1W        W45642  18.588  23.777   2.289  0.1954  0.2027 -0.2419
    1W        W45643   8.493  28.881   0.432 -0.1282 -0.0888  0.2265
    1W        W45644   9.284  23.191   6.794 -0.0413 -0.1539  0.0819
    1W        W45645  18.027   6.763   2.041  0.2490 -0.1135 -0.1695
    1W        W45646   8.865  22.905   9.436 -0.1529  0.2880 -0.3853
    1W        W45647   6.769  15.975   8.021 -0.2233  0.0561 -0.1414
    1W        W45648  27.864   1.442   1.081 -0.2796  0.1722 -0.2901
    1W        W45649  24.617  27.442   8.568 -0.1224 -0.2608 -0.0399
    1W        W45650   0.709   5.193   8.441  0.3568  0.1177  0.2194
    1W        W45651  10.518  21.767   8.774  0.0511  0.1444 -0.1191
    1W        W45652   5.090   8.283   7.147  0.1969 -0.0589  0.0076
    1W        W45653  21.526  13.570   7.700  0.1295 -0.1235 -0.3265
    1W        W45654  17.411  17.617   0.451  0.1848 -0.1379 -0.1501
    1W        W45655  25.339   0.928   2.700 -0.4384  0.1135  0.1176
    1W        W45656  20.366  21.200   8.863 -0.0951 -0.3317  0.1258
    1W        W45657  19.817  11.634   7.082 -0.1426 -0.3743  0.2251
    1W        W45658   0.884   8.490   9.443 -0.0040 -0.0737  0.1010
    1W        W45659  21.209   8.264   2.772  0.1289 -0.1616  0.1983
    1W        W45660  29.267  22.958   0.538 -0.1551 -0.1602 -0.0597
    1W        W45661  19.198  24.267   8.461  0.2258  0.0605 -0.1650
    1W        W45662  10.325  15.812   1.925 -0.1397  0.2747 -0.2542
    1W        W45663  28.595   2.411   2.919  0.0027 -0.0762  0.1947
    1W        W45664   2.040  23.828   6.955  0.0210 -0.0779 -0.0546
    1W        W45665   4.291  10.463   9.067 -0.0602  0.1033 -0.0941
    1W        W45666  16.116   2.577   8.265  0.0640  0.1384  0.1899
    1W        W45667  15.676  21.110   1.503 -0.0044 -0.2160  0.1960
    1W        W45668   4.482  28.650   9.436 -0.1318  0.3355  0.2144
    1W        W45669  23.576  18.113   7.737  0.0022 -0.0747  0.3773
    1W        W45670  13.892  13.444   1.763 -0.2084  0.0938 -0.2273
    1W        W45671  21.173  27.968   0.166 -0.0003  0.1417 -0.2084
    1W        W45672   6.273   1.773   6.932 -0.0361  0.0321  0.2308
    1W        W45673  15.239   4.664   7.519 -0.0019 -0.1661  0.1741
    1W        W45674  23.601  16.312   8.473 -0.0707  0.1955  0.0269
    1W        W45675  25.911   4.936   0.455  0.1000  0.1741 -0.5315
    1W        W45676   8.555  15.451   0.054 -0.4063 -0.0639 -0.0696
    1W        W45677  21.995   4.654   6.876 -0.0427  0.0557  0.0880
    1W        W45678   0.147  17.015   7.899  0.1376 -0.0088 -0.0198
    1W        W45679   0.876   2.025   7.908 -0.0875  0.0699 -0.0045
    1W        W45680  27.584  24.978   8.722  0.0802  0.2781  0.1587
    1W        W45681   5.576  28.546   6.664  0.0085  0.3185  0.0114
    1W        W45682  23.331  26.867   2.691 -0.1154 -0.0645  0.1198
    1W        W45683  26.983  21.944   1.531  0.2670 -0.2400  0.3224
    1W        W45684   6.349  13.838   6.978  0.0357 -0.2049  0.1351
    1W        W45685  23.752  28.503   7.500 -0.0777 -0.2104  0.1246
    1W        W45686  25.842  25.116   8.334  0.0082  0.2796 -0.1929
    1W        W45687  15.146  22.198   8.577  0.2949  0.1720 -0.1196
    1W        W45688   3.450  29.668   3.477  0.2333 -0.0317 -0.1341
    1W        W45689  27.649  10.405   0.531  0.1431  0.5101  0.1370
    1W        W45690   7.974   0.642   7.380 -0.2329  0.1238  0.3523
    1W        W45691  11.106   5.454   8.229  0.0294  0.1429  0.1119
    1W        W45692   2.774  17.224   9.272  0.0378  0.2544  0.2133
    1W        W45693  20.698   8.838   1.796 -0.0940  0.0134 -0.0215
    1W        W45694  21.555  21.190   9.360 -0.0681  0.0730  0.0592
    1W        W45695  28.515  15.332   7.997 -0.2767 -0.1897 -0.1233
    1W        W45696  27.875   4.777   0.115 -0.1294  0.3017  0.0094
    1W        W45697   7.816   1.139   7.258 -0.1145  0.1315 -0.0326
    1W        W45698  26.269  20.883   9.272  0.1369 -0.2070 -0.3260
    1W        W45699  28.130  26.814   2.315 -0.0720 -0.0058  0.1533
    1W        W45700  28.797  19.317   1.239  0.1437  0.0901  0.1486
    1W        W45701  26.809  13.056   1.408 -0.0562  0.1300 -0.0481
    1W        W45702   7.482   5.566   0.153  0.0774  0.0527  0.0973
    1W        W45703  25.396  21.312   8.635 -0.3108 -0.4087  0.0339
    1W        W45704   2.452  21.710   8.363  0.0172  0.0187 -0.2568
    1W        W45705  23.596  20.068   7.685  0.0658  0.0185 -0.1805
    1W        W45706  21.214  10.310   0.539  0.1254 -0.1279  0.0685
    1W        W45707  28.372  23.071   5.736 -0.0762  0.1947  0.2240
    1W        W45708  25.013  15.130   1.638 -0.0993 -0.2626  0.1429
    1W        W45709  16.322  20.010   8.799 -0.5546 -0.0332  0.1940
    1W        W45710  14.508   1.908   6.942 -0.3220  0.1033  0.0733
    1W        W45711  29.429  18.736   8.724 -0.2593 -0.0692 -0.1504
    1W        W45712   7.235  19.018   5.743 -0.2421 -0.0580 -0.0195
    1W        W45713  11.811   1.566   8.553  0.0481 -0.2403  0.1710
    1W        W45714   2.802  13.761   1.809  0.1176  0.2382 -0.1980
    1W        W45715  12.100   6.137   1.193 -0.1886 -0.2657 -0.0727
    1W        W45716  24.593   6.864   8.641  0.0583 -0.1397  0.1682
    1W        W45717   7.182  16.206   5.940  0.0900  0.1764  0.0019
    1W        W45718  22.134  19.977   6.573 -0.0685  0.0248 -0.1221
    1W        W45719  24.590  22.154   0.489 -0.1702  0.1618 -0.0517
    1W        W45720   1.598  26.858   8.131 -0.1807 -0.1693  0.0111
    1W        W45721  19.540  10.138   8.999 -0.1804 -0.2373 -0.1479
    1W        W45722  26.603  21.252   2.721  0.1710  0.2848 -0.0323
    1W        W45723   4.826  21.004   9.006 -0.0433 -0.0053  0.2408
    1W        W45724   5.103   6.248   1.361 -0.1103  0.0425 -0.3020
    1W        W45725  17.866   0.616   7.602 -0.0151 -0.0466 -0.2955
    1W        W45726   4.671  18.845   9.137 -0.1168  0.1738 -0.0479
    1W        W45727  21.942  27.233   1.166 -0.0076  0.1166  0.0599
    1W        W45728   3.631  28.891   5.856  0.2783 -0.2802 -0.2000
    1W        W45729   7.244   8.041   0.897 -0.1579 -0.1150 -0.0629
    1W        W45730  23.098  27.194   6.436 -0.2075  0.1093  0.1668
    1W        W45731  12.111  19.068   0.158 -0.0339  0.0879  0.1652
    1W        W45732  15.958   1.666   2.756 -0.0778  0.0154 -0.3540
    1W        W45733  24.366  28.613   6.759 -0.3100 -0.0054  0.0257
    1W        W45734   9.707   0.471   0.883 -0.2677  0.0380  0.1791
    1W        W45735   1.250  17.524   0.050 -0.0867 -0.1350  0.0789
    1W        W45736   4.751   5.122   9.292 -0.0387  0.0058 -0.0848
    1W        W45737  10.174  20.103   0.438 -0.1452  0.2314 -0.0013
    1W        W45738  27.107  26.443   6.361 -0.0534  0.0814  0.0362
    1W        W45739   2.391   3.783   3.943 -0.1191 -0.1611  0.3318
    1W        W45740  21.934   6.740   1.599  0.4078  0.1448 -0.0316
    1W        W45741  20.284   7.994   1.801 -0.0849  0.2259 -0.0108
    1W        W45742   6.064  17.676   8.666 -0.0011 -0.1176  0.0627
    1W        W45743  20.681   5.101   8.585 -0.3781  0.2706 -0.1470
    1W        W45744   8.230  12.635   1.583 -0.2213 -0.0046 -0.0140
    1W        W45745  29.103   4.691   1.154 -0.0108 -0.1590 -0.0404
    1W        W45746  11.975  19.081   0.939 -0.1783 -0.1131 -0.4885
    1W        W45747  20.392  13.122   0.358 -0.1387 -0.1988 -0.0605
    1W        W45748  28.564  25.247   1.476 -0.1408 -0.0693 -0.0941
    1W        W45749  24.278   9.392   1.110  0.0767  0.1151  0.0463
    1W        W45750  15.766   4.642   1.049 -0.0526  0.1095 -0.0210
    1W        W45751  26.771  21.571   8.958  0.0046  0.0127 -0.0079
    1W        W45752   1.932  10.952   3.263  0.2495 -0.2883 -0.0867
    1W        W45753  18.403   2.572   8.338 -0.1764  0.0691  0.1097
    1W        W45754  26.803  26.518   2.513 -0.0351 -0.0115 -0.0991
    1W        W45755  16.657  24.091   0.254 -0.0574 -0.3692 -0.3055
    1W        W45756  10.485  24.020   8.912  0.0905  0.2511 -0.1854
    1W        W45757  10.762   1.412   0.815 -0.0647 -0.2213  0.3566
    1W        W45758   3.692  24.820   8.104 -0.2111  0.3113 -0.0303
    1W        W45759   7.535   9.241   0.087 -0.0455 -0.0671  0.0402
    1W        W45760  27.980  24.476   1.209  0.0165  0.0840 -0.1362
    1W        W45761   1.663  21.879   6.971  0.3253 -0.0654  0.2590
    1W        W45762   5.571  23.834   1.298 -0.0829 -0.0681 -0.0932
    1W        W45763  11.455  12.582   7.067  0.0167 -0.0609 -0.1757
    1W        W45764   3.875   1.382   1.925 -0.1896  0.1093 -0.0692
    1W        W45765  19.832  22.001   8.546  0.0331 -0.0009 -0.1895
    1W        W45766  22.509  17.667   2.247 -0.3530 -0.0401  0.0486
    1W        W45767  24.977  22.830   2.655  0.0821  0.2528 -0.3113
    1W        W45768  20.454  21.285   9.359 -0.0998 -0.3721 -0.0352
    1W        W45769   3.367  18.386   9.229 -0.0356 -0.0205 -0.2530
    1W        W45770  18.532   2.176   1.994  0.0039  0.0427  0.1074
    1W        W45771   7.497   9.495   1.116 -0.1421  0.1164 -0.0251
    1W        W45772   6.442  24.481   1.786  0.0281  0.0932  0.0207
    1W        W45773   8.778  20.761   8.892  0.1835  0.1697 -0.0192
    1W        W45774  19.999   4.732   7.511 -0.0367 -0.2677 -0.3131
    1W        W45775   6.824   3.978   8.062 -0.1417 -0.0234  0.0592
    1W        W45776  27.889   7.473   8.106 -0.0470  0.1591 -0.1794
    1W        W45777  16.296   0.410   0.652 -0.0067 -0.0197  0.1374
    1W        W45778  10.795   8.014   9.240  0.0692 -0.0168  0.0361
    1W        W45779   5.425  29.576   7.468  0.0912  0.3204  0.0083
    1W        W45780   3.794   3.358   0.442  0.1189  0.3080 -0.1467
    1W        W45781  18.874  28.317   7.095 -0.0027  0.3488  0.0763
    1W        W45782  27.553  14.597   6.343 -0.1581  0.2490  0.4800
    1W        W45783   4.021   3.279   6.040  0.0820 -0.2270  0.0976
    1W        W45784  29.538   0.607   1.400  0.2117  0.2945  0.3558
    1W        W45785  18.057  28.698   7.314 -0.0587 -0.0718  0.0316
    1W        W45786  10.877  19.857   7.486 -0.5099 -0.0368  0.1887
    1W        W45787  13.010   7.774   8.991  0.2915  0.1037 -0.2886
    1W        W45788  19.539  22.999   8.771 -0.1002 -0.0792  0.1348
    1W        W45789  19.391  27.358   2.220  0.1017 -0.0986  0.0733
    1W        W45790  16.391  11.795   8.275  0.4738  0.0090 -0.2862
    1W        W45791  10.678  26.043   7.932 -0.3579 -0.0391 -0.2138
    1W        W45792   5.691   7.562   3.240  0.3505 -0.0165  0.0240
    1W        W45793  12.981  10.520   0.953  0.0881 -0.0511  0.2593
    1W        W45794  24.409  14.817   7.522 -0.1638  0.0398  0.1139
    1W        W45795  11.651   9.161   1.833  0.2915 -0.0926 -0.1023
    1W        W45796  20.932  13.864   1.328  0.4111 -0.0584  0.0798
    1W        W45797   4.055  15.450   9.084  0.2468 -0.0152  0.0173
    1W        W45798  27.222   2.262   2.996 -0.2055 -0.2779 -0.3017
    1W        W45799  16.734  28.116   2.630  0.1992  0.4046 -0.2244
    1W        W45800  24.667   8.487   7.881 -0.0422 -0.2501 -0.1613
    1W        W45801  15.887   9.515   7.020 -0.2589  0.3060  0.0156
    1W        W45802  29.820  18.801   3.169  0.0475  0.0803 -0.1010
    1W        W45803   2.135   9.497   1.650  0.1898 -0.2151  0.2015
    1W        W45804  13.196   0.540   7.214 -0.0388 -0.4183 -0.1526
    1W        W45805   5.553  13.106   8.695  0.0056 -0.3623 -0.0262
    1W        W45806   6.120   8.226   9.383 -0.1253  0.0276 -0.0652
    1W        W45807  24.644  26.188   7.141  0.3637 -0.3883  0.0319
    1W        W45808   2.230   3.462   0.538 -0.0264 -0.1646  0.0954
    1W        W45809   2.686  24.477   1.450 -0.1155  0.0463  0.1159
    1W        W45810  15.468  18.332   1.954 -0.0306  0.2322  0.2985
    1W        W45811  25.163   8.881   0.299 -0.2173 -0.3041 -0.0287
    1W        W45812  22.259  15.842   1.359 -0.1391  0.0036  0.0397
    1W        W45813  17.848   5.472   5.931  0.2850 -0.1838  0.0523
    1W        W45814  19.220  16.914   1.378  0.1411  0.1165  0.0324
    1W        W45815  13.816   6.232   7.246 -0.2691  0.0881  0.0141
    1W        W45816  18.755  17.021   2.633  0.0630 -0.1201 -0.0324
    1W        W45817  12.286  21.834   7.329 -0.1420  0.1484 -0.0350
    1W        W45818   0.289  22.939   1.613 -0.3187 -0.0853  0.0912
    1W        W45819  11.969  10.578   0.090  0.1424  0.0210 -0.0709
    1W        W45820  21.578  26.325   1.139 -0.1331 -0.0289 -0.2406
    1W        W45821  25.328  16.200   1.121 -0.1260 -0.1016 -0.2040
    1W        W45822  18.485   1.763   0.305  0.3473  0.2508  0.0238
    1W        W45823   4.480  26.118   2.089  0.0518  0.1646  0.0809
    1W        W45824  22.233   6.152   7.288  0.4808  0.1743  0.0404
    1W        W45825  24.856  18.888   7.929 -0.0847  0.4305 -0.0323
    1W        W45826  24.252  10.986   8.230 -0.0310  0.1510  0.4044
    1W        W45827   2.086  24.824   2.332  0.1449  0.0331 -0.1597
    1W        W45828  15.088  15.758   1.073 -0.2424 -0.0022 -0.0953
    1W        W45829  18.464  20.065   9.428 -0.0757  0.0723  0.0938
    1W        W45830  12.305  13.723   6.969  0.0251  0.2426 -0.1112
    1W        W45831  26.795   2.502   1.028  0.0560 -0.1529 -0.1408
    1W        W45832   2.859  28.549   1.407  0.0808 -0.0721 -0.0850
    1W        W45833  11.771  23.874   7.342  0.2632 -0.0414 -0.0494
    1W        W45834  11.075   4.983   0.157 -0.2711 -0.0896  0.0004
    1W        W45835  15.782  18.332   0.335 -0.1616 -0.0600  0.2490
    1W        W45836  10.834  23.087   7.766  0.0272  0.2288 -0.1278
    1W        W45837   5.284  24.499   8.873  0.0156  0.0840  0.2457
    1W        W45838   5.719  19.365   1.698  0.0627 -0.0072  0.1281
    1W        W45839   2.860   3.207   2.920 -0.2379 -0.1067  0.1678
    1W        W45840  23.219   3.349   3.040  0.0072 -0.2410  0.1454
    1W        W45841  26.034   2.136   0.761  0.5738 -0.0482 -0.3096
    1W        W45842  22.394  17.752   1.291  0.1678 -0.3593 -0.0855
    1W        W45843  15.610  28.453   7.197  0.0400  0.1314 -0.1089
    1W        W45844  24.056   4.683   8.691  0.2953 -0.2035  0.0377
    1W        W45845   5.429  13.825   6.621  0.0424 -0.2198 -0.0620
    1W        W45846  19.038  21.660   8.202 -0.0836  0.1912  0.2621
    1W        W45847   3.090   8.310   1.316  0.0892 -0.0483 -0.1080
    1W        W45848  21.403  28.388   0.943  0.1367 -0.2385  0.0767
    1W        W45849   6.267   0.364   9.101  0.1180 -0.0438 -0.0659
    1W        W45850  17.628  29.781   7.233  0.2149  0.0543  0.1202
    1W        W45851   3.822   3.768   7.017 -0.1548 -0.0324 -0.2378
    1W        W45852  28.885  13.232   8.254  0.2191  0.1239  0.1859
    1W        W45853  17.659   0.556   9.152  0.0861  0.1508 -0.0093
    1W        W45854  13.709   9.950   2.488  0.1738 -0.0191  0.0132
    1W        W45855  22.319  15.513   9.090  0.0942  0.1853 -0.0487
    1W        W45856  27.908  13.970   1.478  0.1961  0.2396 -0.0516
    1W        W45857   6.686   0.239   7.444 -0.0367 -0.3897  0.1676
    1W        W45858  15.531   9.114   7.093 -0.2291 -0.3799  0.0256
    1W        W45859  19.615  17.504   7.627  0.3409  0.0323 -0.1933
    1W        W45860   3.919  24.210   2.386 -0.0955 -0.1357 -0.2988
    1W        W45861   5.795  24.567   5.840 -0.0244  0.2020  0.4820
    1W        W45862  25.726   7.624   1.648 -0.0445 -0.0884  0.2812
    1W        W45863  27.007   2.642   1.512  0.0554 -0.1015 -0.0436
    1W        W45864  21.682  12.890   1.933 -0.2119  0.0347  0.1994
    1W        W45865  24.145  15.090   6.080 -0.2870 -0.0138 -0.1306
    1W        W45866  11.877  26.944   1.926 -0.0370 -0.0800  0.1836
    1W        W45867   6.666  11.526   0.852 -0.1895 -0.0272  0.1113
    1W        W45868   1.335  10.697   1.282  0.2822 -0.0072 -0.0126
    1W        W45869  26.325  16.397   6.469 -0.1305 -0.0224 -0.2270
    1W        W45870   6.131   5.972   6.561 -0.0590  0.2156  0.1045
    1W        W45871   1.708  24.351   7.053  0.5249 -0.3283 -0.0885
    1W        W45872  10.890   4.927   2.810 -0.0187  0.0808 -0.0712
    1W        W45873  17.097   7.478   0.981  0.0596  0.0420  0.0209
    1W        W45874   7.040   0.993   2.487 -0.1037  0.1651  0.2322
    1W        W45875   7.842  28.186   0.381  0.2153  0.0336 -0.0004
    1W        W45876  19.391  27.401   2.779  0.0863  0.1390 -0.1494
    1W        W45877   4.135   7.592   0.628  0.3651  0.1994  0.2802
    1W        W45878  25.778  21.877   2.100 -0.0735 -0.1700 -0.1316
    1W        W45879  16.018   9.478   1.962 -0.0894 -0.2042 -0.1294
    1W        W45880  24.029  22.894   9.328 -0.0043 -0.2551  0.0126
    1W        W45881  28.852  11.030   0.673  0.1158 -0.0634 -0.1667
    1W        W45882  10.450  18.159   8.804  0.1725 -0.0714  0.0654
    1W        W45883  27.706  16.115   6.673  0.3418  0.0961  0.0514
    1W        W45884  14.367  17.780   0.941 -0.2270  0.0779  0.0980
    1W        W45885   6.443  22.629   0.197  0.1010  0.0474  0.0017
    1W        W45886  10.975  20.477   7.548  0.0612  0.1516 -0.2359
    1W        W45887  16.845  16.208   9.342  0.1161 -0.0877 -0.0523
    1W        W45888  18.657   0.623   7.740 -0.0367 -0.2519  0.2834
    1W        W45889   2.393  29.760   1.266 -0.0335  0.2533 -0.2576
    1W        W45890  10.968  19.563   7.897  0.3706 -0.0624 -0.0425
    1W        W45891   1.098  23.506   8.105  0.1648 -0.0291  0.3608
    1W        W45892  13.100  14.774   7.929 -0.1431 -0.1830  0.0334
    1W        W45893  15.004  15.326   1.980 -0.0305 -0.0999  0.0459
    1W        W45894  20.868  13.062   0.094  0.4940 -0.1678  0.1488
    1W        W45895  25.521   5.030   3.209 -0.1438 -0.1068  0.0987
    1W        W45896  17.009  27.147   1.574 -0.2430 -0.1510  0.0186
    1W        W45897  11.442   8.612   2.897 -0.2364 -0.2063  0.1010
    1W        W45898   5.774  25.075   2.241  0.1669 -0.2308 -0.2362
    1W        W45899  18.121  22.964   3.291  0.1109 -0.1924 -0.0400
    1W        W45900  17.114  22.568   7.158  0.4216  0.1187 -0.0848
    1W        W45901  27.749  12.034   8.327  0.0718  0.0259 -0.2021
    1W        W45902   3.111  11.358   0.218 -0.3282 -0.3403  0.0063
    1W        W45903  17.574  26.704   1.582 -0.1087  0.1190  0.0777
    1W        W45904   7.890  29.746   8.920 -0.3701 -0.0933  0.2743
    1W        W45905   8.107   9.542   3.131  0.0622  0.1941 -0.0475
    1W        W45906  10.772  19.307   0.353  0.1987 -0.1149  0.1587
    1W        W45907  26.156  22.245   9.096 -0.1223 -0.1020 -0.1137
    1W        W45908  24.455  26.174   1.540  0.2190  0.1901 -0.1355
    1W        W45909   1.179  11.775   0.923  0.1009 -0.2296  0.0934
    1W        W45910  27.614  23.622   2.469 -0.0057  0.0104  0.3118
    1W        W45911  17.502   9.249   0.286  0.0938 -0.0511  0.2463
    1W        W45912  27.784  24.435   0.645 -0.2795  0.3830  0.0188
    1W        W45913   7.714   3.499   8.122 -0.0593  0.1688 -0.0368
    1W        W45914  23.072  16.104   8.468  0.2948  0.0626 -0.0827
    1W        W45915   2.693  25.666   2.160 -0.0065  0.0644 -0.1400
    1W        W45916  25.494  26.615   2.370 -0.0899 -0.1671  0.1696
    1W        W45917  11.241   5.478   8.821 -0.0190  0.0206  0.1956
    1W        W45918  16.230  17.175   7.887 -0.2817  0.1041  0.2720
    1W        W45919  17.047  10.635   1.471 -0.0971  0.0487 -0.1216
    1W        W45920   1.041  15.616   6.697  0.2156  0.1079  0.0121
    1W        W45921   2.358  25.215   1.032  0.1118 -0.1621  0.1597
    1W        W45922   3.371   9.306   8.399  0.0655 -0.2421  0.1746
    1W        W45923   0.227   7.326   8.155  0.0357  0.2162  0.2381
    1W        W45924  14.043  25.043   8.628  0.1715 -0.0817 -0.0442
    1W        W45925  19.722  22.516   2.926 -0.0093 -0.1752  0.0694
    1W        W45926  24.585  17.764   0.501 -0.1812 -0.3950  0.2442
    1W        W45927  28.479   4.080   9.296 -0.1428  0.1742 -0.0378
    1W        W45928   5.761  29.014   2.683  0.2788 -0.1506 -0.0191
    1W        W45929   7.448   2.007   8.601 -0.1797 -0.0478  0.4283
    1W        W45930  28.436  20.115   1.184  0.1144  0.1410 -0.1198
    1W        W45931   6.005   4.298   1.890  0.2855  0.0617  0.4154
    1W        W45932   6.097  21.032   0.737  0.1869 -0.2557  0.0295
    1W        W45933   3.992  27.381   9.341  0.1475 -0.0653  0.1855
    1W        W45934  13.292  15.116   1.299 -0.2357  0.1695 -0.3457
    1W        W45935  26.882   6.536   2.044 -0.1625 -0.1311  0.1399
    1W        W45936   1.414  29.590   1.923 -0.1159 -0.1398 -0.2896
    1W        W45937  14.655  20.634   1.365 -0.2556 -0.2816  0.1511
    1W        W45938  27.464   0.529   0.266 -0.3412 -0.1218  0.0456
    1W        W45939  21.618  10.264   1.388  0.1530  0.3091 -0.2326
    1W        W45940  13.063  15.632   0.521  0.1426  0.0959  0.2470
    1W        W45941   5.599   6.995   8.773 -0.1668  0.0614  0.1528
    1W        W45942  29.379   2.663   1.776  0.1186  0.0090  0.4008
    1W        W45943  28.516  20.766   9.221 -0.1465 -0.3333  0.1580
    1W        W45944  19.276   4.172   7.559  0.2748 -0.0761 -0.0202
    1W        W45945   3.955  17.822   8.278 -0.0640  0.0846 -0.0294
    1W        W45946  14.008  14.238   1.028  0.3131 -0.0420 -0.3177
    1W        W45947  11.010  28.844   1.166  0.2926 -0.2026 -0.2076
    1W        W45948   0.372  10.838   1.451  0.1076  0.0678 -0.0432
    1W        W45949  24.055  27.928   7.511 -0.2094 -0.0634  0.0791
    1W        W45950  15.469  23.587   9.146  0.0732  0.1609  0.0379
    1W        W45951  19.663  13.351   6.080 -0.0454  0.0883 -0.2032
    1W        W45952  22.367  19.779   9.319  0.1323 -0.2854 -0.1325
    1W        W45953  21.413  27.742   7.162  0.0861 -0.2419  0.0754
    1W        W45954   5.786  11.745   0.045  0.1937  0.1273 -0.0235
    1W        W45955  18.678  28.662   8.673 -0.0045 -0.0477 -0.1083
    1W        W45956  15.857   1.056   8.518  0.3216  0.2845  0.0921
    1W        W45957   0.521  23.949   1.239 -0.1071  0.1069  0.1728
    1W        W45958  10.627   8.617   1.411  0.1909  0.0956  0.2563
    1W        W45959  23.389  23.439   0.043 -0.1719  0.0263  0.3069
    1W        W45960  15.025  19.701   1.814  0.4197  0.1023 -0.2252
    1W        W45961   5.023  12.155   6.915  0.1339 -0.0109 -0.0252
    1W        W45962  20.683  13.389   8.188 -0.1706 -0.1063 -0.2463
    1W        W45963  21.203   6.275   8.407 -0.1758 -0.0794  0.0294
    1W        W45964  20.354  21.634   1.528 -0.3213 -0.1052  0.1335
    1W        W45965  26.142  27.963   1.077  0.1676 -0.0173  0.0148
    1W        W45966  24.597   0.557   8.428  0.1369  0.0154 -0.0392
    1W        W45967  13.524  18.103   8.768 -0.0819  0.2247  0.0836
    1W        W45968   1.146  12.644   0.301  0.3833 -0.2554 -0.2419
    1W        W45969   9.734   1.162   6.740  0.2339  0.1296  0.2286
    1W        W45970  29.171   3.435   1.640 -0.1319  0.2902 -0.2512
    1W        W45971  16.344  14.062   0.612 -0.3043  0.2885  0.3642
    1W        W45972  13.864   1.625   7.497  0.0828 -0.1570 -0.2669
    1W        W45973  12.809  13.505   6.987 -0.0674 -0.0762  0.2164
    1W        W45974  11.575  13.947   0.399  0.0877  0.1835 -0.1016
    1W        W45975  26.119   9.607   7.676 -0.4762 -0.3374 -0.0905
    1W        W45976   6.205   0.774   0.483 -0.0932  0.4093 -0.0519
    1W        W45977  12.040  21.090   1.613 -0.0496  0.2872 -0.4405
    1W        W45978  10.055  20.468   6.053  0.3932 -0.3300  0.1471
    1W        W45979  17.157  11.271   2.620 -0.1835 -0.1219  0.0103
    1W        W45980  15.010  23.307   1.163 -0.2549 -0.1935  0.1603
    1W        W45981  12.745   5.790   7.765  0.1358  0.0186 -0.2657
    1W        W45982  15.369  16.967   0.450  0.1617 -0.0541 -0.0323
    1W        W45983   6.143  13.017   6.933  0.1264 -0.1024  0.2819
    1W        W45984  19.078   2.646   8.444 -0.0732 -0.3121 -0.3019
    1W        W45985   1.933  28.433   1.108  0.0638  0.2258 -0.0576
    1W        W45986   5.111   5.153   7.809 -0.0321  0.1268 -0.1915
    1W        W45987   3.686  25.972   0.509  0.5111 -0.0345  0.0044
    1W        W45988  12.022  11.094   8.105  0.1305  0.1286 -0.2277
    1W        W45989   5.319  21.578   1.656  0.2915  0.1528  0.0550
    1W        W45990  12.079  13.229   0.085  0.1146 -0.1257 -0.1451
    1W        W45991  23.397  26.942   0.685  0.0542  0.3155 -0.0433
    1W        W45992   3.616   4.453   8.759  0.1015  0.2036 -0.1252
    1W        W45993  19.337  28.795   2.501 -0.0272  0.1096 -0.3875
    1W        W45994  13.365   0.201   9.341 -0.1364  0.2469 -0.2737
    1W        W45995  23.590   2.313   8.263 -0.4829  0.2361 -0.1573
    1W        W45996   6.226   5.547   2.326 -0.1033  0.2692 -0.0337
    1W        W45997  22.420  22.437   6.231  0.4089  0.0699  0.2651
    1W        W45998  20.614  10.910   2.043 -0.0277  0.0012  0.0439
    1W        W45999  23.203  22.863   8.989  0.1529  0.1384 -0.2877
    1W        W46000  28.213  27.522   2.358  0.0305 -0.1924  0.2293
    1W        W46001   0.042  17.792   0.381  0.0851 -0.0987  0.0703
    1W        W46002  23.876   1.845   2.421  0.1479 -0.0298  0.2719
    1W        W46003   6.247  29.592   3.000  0.1073 -0.1417  0.0862
    1W        W46004   4.723  14.168   9.327 -0.1641  0.1083 -0.3025
    1W        W46005  12.430  21.918   0.370  0.2805 -0.1131 -0.0360
    1W        W46006  11.636   4.891   8.377 -0.1803 -0.0999  0.2044
    1W        W46007   0.727  24.348   9.022  0.1462  0.1029  0.0782
    1W        W46008   7.543   6.506   3.107  0.1649  0.0565  0.4598
    1W        W46009  22.979  20.125   1.519 -0.2528  0.4390 -0.1387
    1W        W46010  15.265   9.867   7.515  0.1489 -0.1784 -0.0672
    1W        W46011   6.971  16.164   7.216  0.1620  0.0184 -0.4673
    1W        W46012  10.041  15.892   2.364  0.3502  0.1621 -0.4230
    1W        W46013   7.232  15.105   9.113  0.0138 -0.1349  0.0482
    1W        W46014   6.049  25.486   0.852 -0.0232 -0.2425  0.2561
    1W        W46015   3.219  19.714   6.872  0.1861 -0.0580  0.0494
    1W        W46016   7.594  20.190   1.677 -0.1038  0.1414 -0.1579
    1W        W46017   9.080  10.373   2.666  0.1021  0.0207  0.1060
    1W        W46018   0.884  24.445   8.581  0.0047  0.2765  0.0927
    1W        W46019  17.301   2.425   7.611  0.0167  0.0538 -0.0264
    1W        W46020   7.022  21.362   8.126  0.2287 -0.2854  0.0469
    1W        W46021  15.173  23.118   7.497  0.2650 -0.0029  0.2776
    1W        W46022  10.336  24.350   7.413 -0.0840 -0.1079  0.0323
    1W        W46023  19.180  27.712   0.795 -0.0640  0.0244  0.3309
    1W        W46024  27.651  10.707   6.647 -0.1180  0.1277 -0.0836
    1W        W46025  29.162  23.349   2.242 -0.0590  0.2111 -0.1793
    1W        W46026   3.211  21.301   9.290 -0.3240 -0.0469  0.5618
    1W        W46027   2.480  12.873   0.636 -0.0360 -0.1058 -0.1806
    1W        W46028  15.561  18.117   6.839  0.0542 -0.2067  0.1349
    1W        W46029  12.381   0.244   2.873  0.2888 -0.1227 -0.2365
    1W        W46030  25.881  10.602   0.727  0.3926  0.3217  0.0819
    1W        W46031   2.328  28.668   0.524 -0.0777 -0.2725  0.1148
    1W        W46032  23.896  12.357   7.083  0.1591 -0.1630 -0.1794
    1W        W46033   9.638   3.064   1.002 -0.2636 -0.0471 -0.2161
    1W        W46034  18.909  28.675   1.678 -0.0365 -0.1912 -0.0668
    1W        W46035  21.792  25.259   8.232 -0.2443 -0.0388 -0.1926
    1W        W46036  22.241   6.559   8.881  0.1433 -0.2751 -0.1196
    1W        W46037  10.049  22.221   7.862 -0.0859 -0.1120  0.2189
    1W        W46038  13.010   3.910   7.311 -0.1708 -0.0077  0.1219
    1W        W46039  12.568  25.969   6.680 -0.1653 -0.0302  0.2840
    1W        W46040   6.527  11.854   0.438 -0.1103 -0.1108  0.0637
    1W        W46041  25.779   7.438   2.487 -0.2663  0.3856  0.1553
    1W        W46042   7.927   2.215   7.959 -0.0117 -0.2728  0.2652
    1W        W46043  26.381  27.500   6.871 -0.0425 -0.1679 -0.0022
    1W        W46044   3.667  28.479   9.238 -0.1476 -0.0693  0.0108
    1W        W46045  27.298  10.499   1.918  0.2763  0.0405 -0.1607
    1W        W46046  28.221   8.074   0.487 -0.1083 -0.0370 -0.0090
    1W        W46047   9.366  17.844   7.515 -0.2538 -0.0157  0.1565
    1W        W46048   1.232  25.512   7.044 -0.0460  0.1230  0.0362
    1W        W46049   5.435  23.790   7.186  0.0259  0.2533  0.4170
    1W        W46050  12.478   3.336   2.521  0.0533  0.0683 -0.0990
    1W        W46051  12.664   0.520   8.771 -0.3989  0.2203  0.3899
    1W        W46052  20.589   9.630   2.408 -0.0704  0.1302 -0.2846
    1W        W46053  16.472  20.821   0.390  0.0385 -0.0209 -0.1123
    1W        W46054  22.822  15.169   0.315  0.2325  0.3539 -0.1356
    1W        W46055  15.040   5.890   2.752  0.1150  0.0524 -0.0641
    1W        W46056  29.780  28.411   7.324 -0.1806 -0.3978 -0.2545
    1W        W46057   9.295  11.634   2.644 -0.1083 -0.2808  0.1144
    1W        W46058  11.978  12.541   1.131 -0.0570 -0.1026 -0.0650
    1W        W46059   6.211  13.396   2.296  0.1508 -0.1166 -0.0451
    1W        W46060   9.107   6.962   7.029  0.0772 -0.0913  0.2712
    1W        W46061   8.818   3.590   3.452 -0.0144  0.1331 -0.0420
    1W        W46062  26.645   5.201   7.658 -0.1458 -0.1713  0.0049
    1W        W46063   3.575  22.766   0.358 -0.0210 -0.1049 -0.1370
    1W        W46064  14.143  12.147   7.169  0.4963  0.1876  0.1431
    1W        W46065   1.712  15.728   0.803 -0.0492 -0.0702  0.2819
    1W        W46066  17.748   7.657   8.597  0.2152 -0.1160 -0.2858
    1W        W46067  24.547  24.685   8.410 -0.0685  0.2300 -0.1714
    1W        W46068  28.955  16.338   1.006 -0.0941  0.2170 -0.0750
    1W        W46069  18.120  12.996   1.269 -0.0247  0.1091  0.1883
    1W        W46070   4.502  18.060   1.763  0.2032  0.0911  0.0352
    1W        W46071   0.449   2.352   0.428 -0.0302  0.3226 -0.2742
    1W        W46072  23.908   9.345   7.766 -0.0822  0.1657 -0.0208
    1W        W46073   5.269   3.306   1.240 -0.1187 -0.0365  0.1573
    1W        W46074  19.873  20.545   2.562 -0.1187  0.1671 -0.3648
    1W        W46075   7.029   2.525   8.063 -0.3773  0.4057 -0.2028
    1W        W46076  12.330   5.676   9.000  0.1002 -0.0853  0.1901
    1W        W46077  11.480   8.994   2.423  0.1954  0.0515  0.0365
    1W        W46078  29.080  13.868   6.161 -0.0547 -0.1258  0.1829
    1W        W46079  17.095  24.347   2.332  0.0032 -0.1403  0.1929
    1W        W46080  29.296   1.659   6.963  0.3433  0.0114  0.1273
    1W        W46081  24.645  15.979   7.766 -0.2511  0.0233  0.1312
    1W        W46082  13.787  25.703   7.323  0.0241  0.3164  0.0096
    1W        W46083  16.844  20.413   8.867 -0.1467 -0.0393  0.0084
    1W        W46084   2.310  14.864   7.582 -0.0484  0.1015  0.2110
    1W        W46085  13.602  23.997   2.646  0.2388 -0.2998  0.1007
    1W        W46086  16.455  16.811   8.607  0.3694 -0.4739 -0.4423
    1W        W46087  29.706  15.248   0.132  0.0630  0.1734  0.4370
    1W        W46088   5.875  18.549   7.005  0.1237  0.3362 -0.1939
    1W        W46089   1.318  12.295   6.283 -0.1080  0.2449  0.0582
    1W        W46090  29.400  29.647   6.282 -0.0374  0.1753  0.0165
    1W        W46091  17.446   5.958   9.387  0.0112 -0.0947 -0.0009
    1W        W46092  24.612  18.077   1.699 -0.0817  0.1384 -0.0368
    1W        W46093  13.253  20.567   7.581  0.0434 -0.2530  0.0745
    1W        W46094  14.600  16.146   2.376  0.0116  0.0325  0.0432
    1W        W46095  22.341   1.434   8.716 -0.1865 -0.0517 -0.0594
    1W        W46096   1.294  15.027   6.044 -0.1719  0.0652 -0.0812
    1W        W46097  19.401  25.554   6.814 -0.1611  0.1186  0.2638
    1W        W46098  23.188   0.990   8.429 -0.0554 -0.0769  0.0809
    1W        W46099  16.918   3.412   2.244  0.0105 -0.3305 -0.0807
    1W        W46100  12.212   1.609   1.453  0.0012  0.2132  0.2244
    1W        W46101  20.829   3.433   7.345 -0.2776  0.2105  0.3767
    1W        W46102  18.320  13.433   0.309  0.0825 -0.1433  0.1859
    1W        W46103  25.954   3.440   9.089 -0.0539 -0.1064  0.1345
    1W        W46104  15.865   5.280   9.313  0.0754 -0.0162  0.2473
    1W        W46105  12.073   2.000   1.771  0.0318  0.2036  0.0488
    1W        W46106  26.230   6.030   7.268 -0.1138  0.0326 -0.1930
    1W        W46107   0.898   2.289   9.016 -0.2154 -0.0229 -0.0282
    1W        W46108   2.912   0.072   0.323 -0.2365  0.1217  0.1255
    1W        W46109   6.320  14.287   1.701  0.2128  0.0423 -0.5281
    1W        W46110  20.897  14.630   6.618  0.0004 -0.3410  0.3321
    1W        W46111   2.900  26.077   8.831  0.1373 -0.2983  0.2297
    1W        W46112  17.304  11.115   7.116  0.2701 -0.0468  0.4187
    1W        W46113  16.377  29.600   9.236 -0.0424  0.0356 -0.0897
    1W        W46114  21.949   3.786   2.594  0.1616  0.1498 -0.0352
    1W        W46115  19.806  13.028   7.619  0.1526  0.1202  0.1308
    1W        W46116  18.596  23.615   1.365 -0.1264  0.0295  0.1804
    1W        W46117  25.094  18.952   1.907  0.0157 -0.2700 -0.2139
    1W        W46118   6.505  13.987   1.072  0.0608 -0.0880 -0.0500
    1W        W46119  16.328   7.550   8.967 -0.2144 -0.0989  0.0858
    1W        W46120  23.275   4.212   6.541  0.0644  0.2428 -0.0096
    1W        W46121  20.776  27.738   0.501  0.2006  0.1740 -0.1151
    1W        W46122   2.147  27.635   9.002 -0.1195 -0.0067  0.1568
    1W        W46123  25.286  21.643   7.766 -0.1016  0.1025 -0.1416
    1W        W46124   3.320  29.488   8.242 -0.4389 -0.0592  0.1713
    1W        W46125  12.943  27.696   7.009 -0.3804 -0.1237 -0.1338
    1W        W46126  16.799  25.453   7.725 -0.3107  0.0870 -0.0155
    1W        W46127  12.797  20.673   7.307  0.0974 -0.3121  0.1215
    1W        W46128  21.644  28.290   8.829  0.0444  0.2194 -0.1691
    1W        W46129   5.579  16.748   6.415 -0.2510  0.1330 -0.2338
    1W        W46130  14.950  10.806   1.097  0.0061 -0.1607  0.2993
    1W        W46131  25.883  23.901   8.244  0.1246  0.2712 -0.0426
    1W        W46132   1.799  28.546   3.385  0.4560  0.0988  0.0478
    1W        W46133  15.320   2.119   3.879  0.2087  0.3962  0.1294
    1W        W46134  18.659  17.543   7.984 -0.0025  0.1700 -0.0987
    1W        W46135  22.554  22.913   2.858 -0.0489  0.1562 -0.3866
    1W        W46136  19.006  29.458   1.477 -0.0811  0.0812 -0.0931
    1W        W46137  22.846   4.747   9.452  0.2234  0.3187  0.2512
    1W        W46138  22.177  21.606   9.423  0.0486  0.0091 -0.3209
    1W        W46139  12.898  26.921   9.396 -0.2759 -0.2492  0.2658
    1W        W46140   8.837   9.924   2.566  0.0647  0.1996  0.0303
    1W        W46141   5.218  20.937   0.254 -0.0673 -0.0563 -0.0682
    1W        W46142  26.088  13.580   8.054  0.0157 -0.0739 -0.0629
    1W        W46143   0.405  29.806   2.018 -0.1029  0.0394  0.2284
    1W        W46144  20.633  18.523   7.526 -0.2695  0.1549  0.2636
    1W        W46145   5.727  22.350   1.745  0.0235  0.0062 -0.0019
    1W        W46146  28.295  15.962   9.129 -0.1529 -0.1376 -0.1632
    1W        W46147  29.480  18.028   7.410  0.0546 -0.0984  0.0293
    1W        W46148  12.721  17.206   1.933 -0.1748 -0.1674  0.0580
    1W        W46149   3.434   6.273   9.418 -0.1602 -0.4199 -0.0405
    1W        W46150   8.130   2.703   1.714  0.2279 -0.0389  0.1712
    1W        W46151  17.797  26.840   7.709  0.0035  0.1467 -0.0750
    1W        W46152   1.878  20.503   1.637 -0.0692 -0.0637 -0.0498
    1W        W46153   6.889  18.695   8.107 -0.1552  0.2973  0.2852
    1W        W46154  13.488   6.619   1.895  0.0773  0.0944  0.0905
    1W        W46155   2.748   9.698   6.588  0.0592  0.2536 -0.0822
    1W        W46156  17.113  24.550   7.759  0.1197  0.1104 -0.2429
    1W        W46157   8.372  22.043   6.596 -0.1691  0.1185 -0.1551
    1W        W46158  13.793   8.300   0.086 -0.2076  0.2480  0.3026
    1W        W46159  22.975  21.402   1.111 -0.1970  0.2878  0.1320
    1W        W46160   3.762   6.999   8.394  0.2606  0.0368 -0.2040
    1W        W46161  18.103   1.813   7.656 -0.2414  0.0621  0.1017
    1W        W46162   2.490  24.409   0.523 -0.1543  0.0650  0.1046
    1W        W46163  29.042   7.748   2.896 -0.1477  0.1371 -0.2941
    1W        W46164  26.854   8.111   3.306  0.0139 -0.1824  0.0045
    1W        W46165  10.611   1.472   8.165 -0.0559 -0.0340  0.1009
    1W        W46166   3.951   0.027   8.971 -0.1103 -0.3171  0.3972
    1W        W46167  23.239  23.378   6.743 -0.4219  0.1298  0.2813
    1W        W46168  17.253   1.411   2.716  0.1963  0.1598  0.2721
    1W        W46169   0.461   7.263   7.619 -0.0976 -0.0890  0.1708
    1W        W46170   2.234  28.992   0.151 -0.1345  0.1914  0.1574
    1W        W46171   4.280   6.199   2.551  0.1741  0.0432  0.0365
    1W        W46172  19.327  28.171   1.918 -0.1106  0.1920  0.3277
    1W        W46173  10.875  22.446   8.568  0.0538 -0.0737 -0.1413
    1W        W46174  27.604   1.854   1.161 -0.1781  0.0147 -0.2148
    1W        W46175  25.398   9.759   0.591 -0.0814 -0.2953  0.0014
    1W        W46176  22.621  10.109   6.244 -0.0941  0.0198 -0.1593
    1W        W46177  24.711  27.060   1.045  0.0185 -0.1426  0.0048
    1W        W46178   1.247   0.065   7.011 -0.0637  0.0668  0.1804
    1W        W46179   9.424   8.755   0.074  0.1923  0.0440  0.2391
    1W        W46180  25.207  26.892   0.556  0.1967  0.1787 -0.0815
    1W        W46181  21.552  25.060   2.232  0.0260 -0.1300 -0.0073
    1W        W46182   8.306  11.256   2.458 -0.1357 -0.4698  0.1375
    1W        W46183  25.679  14.000   6.759 -0.0860  0.0582 -0.0393
    1W        W46184  14.260  13.384   1.084 -0.1528  0.0673  0.0583
    1W        W46185  11.459   4.344   1.342 -0.3211 -0.0095 -0.0022
    1W        W46186  18.309  19.055   0.417 -0.2143 -0.0669 -0.0768
    1W        W46187  28.009  13.847   6.241  0.2161  0.1932  0.0165
    1W        W46188  24.345  22.553   0.179 -0.1370 -0.0860  0.3275
    1W        W46189   2.847  25.646   7.350 -0.0645  0.0042  0.1593
    1W        W46190  22.982  13.488   2.181  0.1542  0.0372  0.0498
    1W        W46191  12.389   3.040   8.952  0.0379  0.3404  0.1251
    1W        W46192   2.382  16.352   6.472  0.2239 -0.5535  0.1231
    1W        W46193  25.563  17.977   0.764  0.2801  0.0824 -0.1203
    1W        W46194  28.632   8.198   7.238 -0.1571  0.2893 -0.1561
    1W        W46195   6.229  15.353   1.198  0.4114 -0.2483 -0.1216
    1W        W46196  12.096   0.457   6.987  0.1675  0.0084 -0.1484
    1W        W46197  18.048  19.281   3.002  0.2583 -0.0883  0.1623
    1W        W46198  18.284  13.966   1.492 -0.1959 -0.1313 -0.1209
    1W        W46199  10.317  19.082   7.182 -0.0520  0.1394 -0.0831
    1W        W46200   8.224  20.139   8.566  0.0623  0.0352 -0.1924
    1W        W46201  13.620  29.625   2.779  0.1560  0.3468  0.1558
    1W        W46202  20.792  11.967   6.925  0.0975  0.0932  0.1692
    1W        W46203  18.576   3.303   2.472 -0.0463 -0.2405  0.1580
    1W        W46204   5.221  26.677   0.312  0.1522  0.0726 -0.4181
    1W        W46205   1.338  11.444   1.300  0.0509 -0.1633 -0.2873
    1W        W46206   9.985   3.155   3.977 -0.0478  0.1778  0.0112
    1W        W46207   7.718  17.401   6.543 -0.1714 -0.0087 -0.0746
    1W        W46208  17.381  10.667   8.854 -0.1347 -0.3194 -0.1167
    1W        W46209   8.338  29.484   8.762 -0.0343 -0.1485 -0.1822
    1W        W46210  24.131   5.593   7.410  0.0739  0.0970  0.0579
    1W        W46211   3.186   6.099   2.392  0.0424 -0.2327  0.0211
    1W        W46212   0.691  12.893   0.356  0.0375 -0.0775 -0.0210
    1W        W46213   5.832   1.480   7.740 -0.3311 -0.0983 -0.2131
    1W        W46214  17.657  16.217   1.087  0.1100  0.0108  0.0073
    1W        W46215  15.400   0.328   8.247  0.0950  0.1968 -0.2142
    1W        W46216  18.559  23.285   2.148 -0.0370 -0.0789  0.1891
    1W        W46217  17.754   0.706   0.890 -0.0341 -0.0313  0.2974
    1W        W46218   4.663   9.274   6.430 -0.1168  0.0013 -0.2032
    1W        W46219  10.539   6.802   1.462 -0.0901 -0.0348  0.2763
    1W        W46220   9.224   6.512   0.597  0.4308  0.0700 -0.0431
    1W        W46221  19.922  29.086   0.581 -0.0751  0.2893  0.2402
    1W        W46222  20.926   2.340   8.874  0.0699  0.0314 -0.1696
    1W        W46223  27.675  18.501   6.700  0.0276 -0.0501 -0.1140
    1W        W46224  29.654  17.217   0.092 -0.0812 -0.0114 -0.1273
    1W        W46225  26.998   6.103   1.013  0.1387  0.0886 -0.1974
    1W        W46226  17.421  15.746   7.448 -0.2799 -0.0692  0.3701
    1W        W46227   6.283  16.398   9.427  0.1958 -0.1154 -0.0589
    1W        W46228   0.239  23.571   2.278  0.0291  0.3453 -0.2083
    1W        W46229  17.100   1.823   6.611 -0.1549 -0.0632 -0.1161
    1W        W46230  21.171   8.793   6.619 -0.3026  0.0254  0.0813
    1W        W46231  24.187  28.216   2.837 -0.4231  0.1721 -0.1563
    1W        W46232   9.015  16.696   7.213  0.2442 -0.0702  0.2706
    1W        W46233   0.347  15.114   6.032  0.0665 -0.0897  0.1260
    1W        W46234  29.349  21.427   5.663  0.1455  0.3469 -0.0151
    1W        W46235   2.744  17.599   1.004  0.0445 -0.1231  0.4476
    1W        W46236  23.414   7.663   8.472 -0.0712 -0.0498  0.2987
    1W        W46237  21.118   7.375   6.518  0.1833 -0.1307 -0.0164
    1W        W46238   6.881  10.199   7.639  0.1847  0.0222  0.2120
    1W        W46239   0.682  27.519   0.266  0.0350 -0.1041  0.2222
    1W        W46240  20.742  17.737   9.111  0.0734 -0.2933  0.2016
    1W        W46241  10.601  22.713   0.006  0.3226  0.0354 -0.0312
    1W        W46242  15.222   0.672   0.817 -0.1629 -0.0290 -0.0450
    1W        W46243  24.265   7.165   2.126 -0.1198 -0.1789  0.0683
    1W        W46244  17.851   7.660   6.299 -0.3064  0.1915  0.2312
    1W        W46245  22.608  16.860   8.465 -0.1150 -0.1422 -0.2532
    1W        W46246  24.454  15.247   9.179 -0.0766 -0.2535  0.1078
    1W        W46247  17.587   1.509   1.685  0.1363 -0.3598 -0.0091
    1W        W46248   2.637  19.549   1.026 -0.0705  0.0754 -0.1461
    1W        W46249  23.662   5.374   0.274 -0.0728 -0.2269 -0.4892
    1W        W46250  10.460   4.987   2.595 -0.0887  0.0778 -0.3392
    1W        W46251  15.482  11.646   0.716 -0.0771 -0.0538  0.2420
    1W        W46252  16.323   0.562   9.101 -0.0215 -0.1777  0.0948
    1W        W46253  24.581  21.091   0.426  0.1146 -0.0627  0.1299
    1W        W46254   4.648  10.885   9.079 -0.0541  0.0428 -0.0708
    1W        W46255  28.060   9.109   8.995  0.1987 -0.0907  0.1825
    1W        W46256  19.689  26.669   9.326  0.2186  0.1037  0.1507
    1W        W46257   9.472  25.820   9.072  0.0880 -0.2447 -0.0279
    1W        W46258  26.196  20.469   0.213  0.2575  0.0795  0.0633
    1W        W46259   0.419  21.858   7.045  0.3982 -0.2058 -0.0016
    1W        W46260  17.162   1.987   2.372  0.1167  0.1016 -0.2013
    1W        W46261  27.393   1.152   1.751 -0.0536 -0.3542 -0.1700
    1W        W46262  13.899  15.950   6.596  0.1712 -0.1762  0.0993
    1W        W46263  28.575  10.074   2.095  0.0700 -0.0018 -0.1857
    1W        W46264  17.874  10.760   0.437  0.1528 -0.0117 -0.2606
    1W        W46265  27.195  21.430   0.783  0.3058  0.4807  0.1016
    1W        W46266  15.759   9.848   1.669  0.0764 -0.0334 -0.3369
    1W        W46267  25.144  10.085   8.932  0.3239  0.3476 -0.0774
    1W        W46268  18.209  11.835   1.870  0.0976 -0.0618  0.4516
    1W        W46269  23.013  13.026   2.466  0.4323  0.1993 -0.1472
    1W        W46270  24.766  28.885   1.384 -0.1491 -0.1899 -0.1287
    1W        W46271  21.000  26.509   0.984  0.0772  0.3077  0.0898
    1W        W46272  24.309  18.967   7.215 -0.0012 -0.2935 -0.0758
    1W        W46273  21.288  26.338   9.113 -0.1088 -0.0974 -0.1351
    1W        W46274  22.906  11.435   1.875  0.2028 -0.2071  0.0363
    1W        W46275  12.777  25.913   7.527 -0.0479  0.1006  0.1018
    1W        W46276  19.699  21.852   8.077  0.2747  0.2246 -0.2791
    1W        W46277  14.917  18.144   6.809 -0.0739 -0.0209 -0.1825
    1W        W46278  12.545   1.223   7.232  0.0576 -0.1395 -0.2119
    1W        W46279   9.321  14.016   1.093  0.0365  0.1239  0.1867
    1W        W46280  23.141  18.795   7.841  0.0352  0.1525  0.2927
    1W        W46281   1.684  16.047   2.248 -0.0589 -0.3469 -0.0630
    1W        W46282   5.363   2.527   7.665 -0.0287  0.1644 -0.0205
    1W        W46283  15.445   0.834   0.010 -0.0475 -0.0370  0.2810
    1W        W46284  23.574  22.735   8.015 -0.0222 -0.2061 -0.0066
    1W        W46285  21.261  21.293   0.348 -0.1548 -0.1795  0.3454
    1W        W46286   1.328  22.527   6.426  0.2145  0.0235 -0.1314
    1W        W46287   2.657  15.184   6.296 -0.2240 -0.1569  0.0343
    1W        W46288  16.977  29.341   8.484  0.0027 -0.0703  0.0226
    1W        W46289   9.890  26.796   6.945 -0.5543 -0.0300 -0.2295
    1W        W46290   1.671   5.051   8.152  0.0682 -0.0236 -0.0750
    1W        W46291  22.789  19.389   0.414 -0.3280  0.0706 -0.0958
    1W        W46292   4.099  22.353   5.374  0.3981  0.1355 -0.0599
    1W        W46293  15.637  20.750   7.773 -0.0475  0.1204  0.0386
    1W        W46294   8.710  16.082   8.976 -0.1353 -0.0349 -0.1195
    1W        W46295   9.437   3.845   8.574  0.3661  0.3822  0.0232
    1W        W46296  25.711   7.179   0.465  0.0534  0.3034 -0.3117
    1W        W46297   3.490   7.156   9.339 -0.1319  0.1185  0.2670
    1W        W46298   9.513   9.883   9.248 -0.0042 -0.1392 -0.0364
    1W        W46299  26.201  20.392   1.940  0.0823  0.0556 -0.0617
    1W        W46300  20.472   5.781   0.612  0.1334  0.0393 -0.1943
    1W        W46301   4.587  29.560   9.281 -0.1949 -0.3397 -0.0514
    1W        W46302   8.394  18.941   0.875  0.4548  0.1144  0.1399
    1W        W46303  11.686   9.423   1.319  0.0591  0.0903  0.0637
    1W        W46304  14.186  27.096   1.169 -0.0190  0.0048 -0.0512
    1W        W46305  10.864   2.171   3.211 -0.1117 -0.1008 -0.0558
    1W        W46306  26.341   3.830   8.821 -0.0351 -0.3054  0.0615
    1W        W46307   1.600  10.186   0.258  0.0473  0.0007  0.0946
    1W        W46308  27.249  20.979   6.544 -0.0118 -0.1172 -0.0951
    1W        W46309  10.538  11.304   1.464 -0.0732  0.0488 -0.1000
    1W        W46310  22.507   1.649   6.822  0.2036  0.0808 -0.1031
    1W        W46311  20.103  28.132   2.532  0.0252 -0.4948 -0.1943
    1W        W46312  21.727   3.286   0.649  0.0857 -0.0869 -0.1615
    1W        W46313  24.775   6.850   7.778 -0.0326 -0.0508  0.0155
    1W        W46314  11.515   4.034   7.893  0.0465  0.3891  0.0795
    1W        W46315  17.233  18.027   7.664 -0.0567 -0.0522  0.0188
    1W        W46316  12.996  15.981   1.597 -0.1690  0.3671 -0.0048
    1W        W46317   5.794  15.266   7.251  0.2453  0.1008  0.2232
    1W        W46318  12.875   2.599   8.364 -0.0086  0.0488  0.3895
    1W        W46319  23.176  16.510   5.582 -0.0510 -0.1668 -0.2088
    1W        W46320   5.180  17.316   6.784  0.2285  0.3443 -0.1407
    1W        W46321   9.135   3.165   3.498 -0.0316 -0.2240  0.0582
    1W        W46322  10.442  22.345   1.194 -0.2266 -0.1855  0.2765
    1W        W46323   9.547  11.478   2.246 -0.1335  0.1467  0.0375
    1W        W46324  22.804  23.625   6.781 -0.1534 -0.0532 -0.2466
    1W        W46325   6.862  29.695   7.116  0.1401  0.2465  0.1814
    1W        W46326   4.798  14.002   6.776  0.1540  0.1535 -0.2420
    1W        W46327  11.700   3.535   6.903 -0.0804 -0.0065  0.3591
    1W        W46328  19.590   1.632   7.844  0.1120  0.0082  0.2633
    1W        W46329  27.319  11.146   1.096  0.1820  0.1658  0.0071
    1W        W46330   0.577  11.630   1.839  0.1596  0.0005  0.3829
    1W        W46331  21.402  12.822   7.180  0.1790  0.0674  0.6113
    1W        W46332  10.894  22.930   1.797  0.1685 -0.0667 -0.0737
    1W        W46333   5.763   1.600   0.584 -0.0286 -0.1701  0.1215
    1W        W46334   7.485  23.903   7.162 -0.2257  0.0081 -0.1152
    1W        W46335  13.377   1.578   3.181  0.1375  0.1074 -0.0307
    1W        W46336  10.634   7.502   9.229 -0.3990  0.0824 -0.0489
    1W        W46337  16.155   5.328   0.562 -0.0482  0.2256  0.2077
    1W        W46338  18.440   4.275   7.976  0.1391 -0.2491  0.0615
    1W        W46339  13.816  26.800   0.357 -0.0948  0.0279  0.2148
    1W        W46340  25.320  10.742   2.807 -0.1225  0.2898 -0.1897
    1W        W46341   5.988  15.411   8.980 -0.0389  0.1662  0.0555
    1W        W46342  13.252  10.807   1.811  0.0013 -0.1476 -0.3642
    1W        W46343  26.127  16.878   1.920  0.2509  0.2323  0.1853
    1W        W46344  17.778  26.988   2.487  0.0507  0.0695 -0.3096
    1W        W46345  26.500  23.167   1.169  0.1304 -0.1731 -0.0550
    1W        W46346  27.532   2.203   0.132  0.2173  0.0502  0.2621
    1W        W46347  11.891  25.632   8.544 -0.0218  0.1344 -0.0860
    1W        W46348  25.461   3.291   2.493 -0.3075  0.2041  0.2119
    1W        W46349  18.730  12.953   0.670 -0.0178  0.1529 -0.1799
    1W        W46350  27.824  20.862   2.293 -0.2773  0.3100 -0.0227
    1W        W46351   7.457  11.142   1.899 -0.1583 -0.2527  0.2620
    1W        W46352  12.549  26.330   2.272  0.1454  0.0867 -0.1206
    1W        W46353   1.311   9.597   7.775  0.1304  0.1983  0.1579
    1W        W46354  15.546   7.028   9.181 -0.3456 -0.2078 -0.0006
    1W        W46355   1.004  14.566   1.615  0.0326  0.0593  0.1358
    1W        W46356  24.165   4.798   2.802  0.0156 -0.1764  0.1878
    1W        W46357  10.750  19.788   8.720  0.0603  0.0957 -0.2351
    1W        W46358   7.422  14.054   2.682  0.0128 -0.0326 -0.0237
    1W        W46359  28.598  23.390   7.309 -0.0669  0.1171  0.2846
    1W        W46360  16.142  15.420   1.365  0.1638 -0.1099 -0.1749
    1W        W46361  20.026  16.307   8.367 -0.2098 -0.3214 -0.1694
    1W        W46362   3.908  29.434   2.593 -0.1913 -0.1039  0.2473
    1W        W46363  28.940  16.422   7.371  0.2403  0.0469 -0.1515
    1W        W46364  22.207  27.078   8.618  0.2223  0.0572  0.0490
    1W        W46365  24.484  29.720   0.771 -0.1809 -0.0101  0.3231
    1W        W46366   5.069  19.583   6.516  0.2067  0.0716  0.0227
    1W        W46367   6.762  13.491   0.333  0.1320 -0.0532 -0.0787
    1W        W46368  27.588  11.140   8.497  0.0099  0.1058 -0.3672
    1W        W46369   5.418   8.375   2.145  0.0595  0.0037  0.1498
    1W        W46370  23.910  17.661   9.356 -0.0052  0.1270  0.2087
    1W        W46371  24.103  24.938   8.565 -0.2145 -0.2783 -0.1533
    1W        W46372   0.098  10.362   7.669 -0.3303 -0.0834 -0.5065
    1W        W46373   1.068   1.877   0.531  0.0323 -0.1752  0.0702
    1W        W46374   3.576  12.657   7.500  0.2588  0.2013  0.0971
    1W        W46375  13.437   6.328   0.701 -0.0770 -0.0191  0.0446
    1W        W46376  10.601  29.815   0.468 -0.3812  0.0885  0.0896
    1W        W46377  15.163  23.126   8.571 -0.0704 -0.0261  0.0617
    1W        W46378  10.130  21.629   7.300 -0.3136  0.0906  0.0832
    1W        W46379   1.646   1.619   7.624 -0.0136 -0.1099  0.0989
    1W        W46380   9.871  14.317   7.070 -0.1530  0.0197 -0.0069
    1W        W46381  11.159  27.505   1.950 -0.0393 -0.0647  0.1240
    1W        W46382  20.245  25.945   1.315 -0.2657 -0.2699  0.2695
    1W        W46383   4.422   3.466   1.648 -0.0719 -0.0513 -0.2490
    1W        W46384  19.304   5.120   0.458 -0.2862  0.0388  0.0176
    1W        W46385  27.031  13.625   8.358  0.0085 -0.1577  0.0466
    1W        W46386  16.164  15.426   7.454  0.2553  0.0217  0.1922
    1W        W46387  28.064  27.215   0.746  0.0356  0.0338  0.1224
    1W        W46388  21.235   2.737   8.633  0.0049  0.0861  0.1375
    1W        W46389  19.473  22.554   3.376 -0.1932 -0.0583 -0.0447
    1W        W46390  19.926   5.247   6.707 -0.0459  0.2086  0.0246
    1W        W46391   0.268  29.397   1.731 -0.1927  0.0237  0.2189
    1W        W46392  18.058  20.674   8.347 -0.1909 -0.2561  0.0223
    1W        W46393  11.016  13.959   6.730  0.0026  0.2405 -0.1125
    1W        W46394   6.858  17.015   1.799 -0.0725  0.1306 -0.1578
    1W        W46395  17.073  12.119   2.378 -0.5480 -0.2468  0.0702
    1W        W46396   9.286  20.328   6.613 -0.0652 -0.0833  0.1619
    1W        W46397  28.388  24.646   2.132  0.2088 -0.3417  0.1468
    1W        W46398  20.111  26.145   0.882 -0.0034 -0.0825  0.2473
    1W        W46399  27.457  14.114   7.750 -0.5028  0.0733 -0.0681
    1W        W46400  10.283   1.744   1.047 -0.1044  0.1473  0.3855
    1W        W46401  15.164  11.706   2.252  0.2506 -0.0859  0.2316
    1W        W46402  25.552  26.579   0.876  0.1967  0.0961  0.1005
    1W        W46403  15.366   1.082   6.997  0.0143  0.3739 -0.2177
    1W        W46404  13.223   5.393   1.109 -0.0743 -0.0326  0.1978
    1W        W46405  22.213  20.702   8.833  0.1995  0.1820  0.1243
    1W        W46406  29.686   6.630   0.285  0.1472 -0.1154  0.0032
    1W        W46407  25.587   7.909   2.054  0.2334 -0.1633 -0.0061
    1W        W46408   1.788   4.080   2.929 -0.1255  0.2705 -0.4620
    1W        W46409  27.955   8.345   0.800  0.0441 -0.0595  0.0390
    1W        W46410  19.431  10.235   0.432  0.0062  0.1334 -0.0142
    1W        W46411  24.333   2.875   0.270  0.0736 -0.1559  0.1345
    1W        W46412   1.419  14.012   7.153 -0.3018  0.4337  0.0941
    1W        W46413  18.812   2.017   6.795 -0.1358  0.0865 -0.3323
    1W        W46414  28.502  28.751   9.126 -0.0184  0.0415  0.2531
    1W        W46415  13.832  17.624   0.857  0.1714  0.1494 -0.0146
    1W        W46416  13.148  14.273   7.689  0.1939  0.4437 -0.0795
    1W        W46417  18.682  24.175   1.311 -0.1946  0.2350  0.0005
    1W        W46418   6.052   7.305   3.026 -0.1241  0.0514 -0.1910
    1W        W46419   9.871  24.837   0.912  0.0197 -0.0921 -0.0423
    1W        W46420  26.894  28.802   7.025 -0.2190 -0.0376 -0.0295
    1W        W46421  28.703   7.544   0.402  0.0700 -0.1831  0.1015
    1W        W46422  23.807   5.185   7.346  0.0476  0.0523  0.0870
    1W        W46423  13.375  11.540   8.488 -0.1681 -0.0303 -0.2516
    1W        W46424   9.752  19.042   8.224  0.1297  0.2906 -0.3626
    1W        W46425   4.392   7.705   3.483 -0.1038 -0.0094  0.2125
    1W        W46426   1.108  23.570   7.561 -0.2409 -0.0419 -0.0097
    1W        W46427  12.587   7.297   7.970  0.0288 -0.1178  0.2861
    1W        W46428   7.691  27.797   1.178  0.0851  0.2488  0.0193
    1W        W46429   7.832  16.878   6.429  0.0765  0.2012 -0.3756
    1W        W46430  16.900  11.033   9.251  0.0627 -0.1542 -0.0906
    1W        W46431  20.372   9.109   1.499  0.3333 -0.0820 -0.0454
    1W        W46432  29.593   7.765   6.688 -0.1143 -0.3488 -0.0970
    1W        W46433  19.126  21.844   0.834  0.0762 -0.0782 -0.2317
    1W        W46434   4.637  26.269   0.738 -0.1799 -0.0860 -0.2357
    1W        W46435   3.413  13.698   9.407  0.0380  0.0574  0.1858
    1W        W46436  14.126  10.556   0.512 -0.0653  0.1997  0.0403
    1W        W46437   1.940   7.250   1.227  0.0536  0.1794  0.1715
    1W        W46438  26.826  11.381   1.087 -0.1693 -0.1317  0.2340
    1W        W46439  25.037  23.781   9.456  0.1581 -0.0318 -0.3799
    1W        W46440  11.251   6.348   8.560 -0.0290  0.2872  0.0265
    1W        W46441  25.402   1.778   0.716 -0.4242  0.1212  0.2201
    1W        W46442   4.594  12.343   9.219 -0.1266 -0.1597  0.0393
    1W        W46443   2.175  22.330   8.662 -0.3143 -0.1034 -0.0740
    1W        W46444   4.026  10.900   1.175 -0.1008  0.0030  0.0354
    1W        W46445  28.047  25.398   0.668  0.0161  0.0373  0.1398
    1W        W46446  18.403   3.956   8.913  0.0513 -0.0774  0.4968
    1W        W46447  14.017  17.994   0.609 -0.0572  0.1248 -0.0105
    1W        W46448  14.839   1.088   2.798  0.0108  0.2924  0.0495
    1W        W46449  12.903  15.137   7.484 -0.2033 -0.2503  0.0794
    1W        W46450  10.123  27.175   6.547 -0.3066  0.1129 -0.1089
    1W        W46451  24.597  26.252   0.050  0.0567  0.0872 -0.0849
    1W        W46452  21.328  18.987   8.479 -0.0887 -0.0373  0.1070
    1W        W46453   2.266  28.523   2.023 -0.0670 -0.0029  0.0331
    1W        W46454  21.984  26.955   6.837  0.0139 -0.1287 -0.1291
    1W        W46455   7.279  14.520   6.702  0.1597 -0.0573  0.3084
    1W        W46456   8.768  27.109   8.945 -0.0501  0.3553 -0.1258
    1W        W46457   1.263   1.758   3.162  0.0647 -0.0255  0.0855
    1W        W46458   5.946  19.080   7.020 -0.0353 -0.0144  0.1287
    1W        W46459   8.225  14.154   8.191 -0.1445 -0.0553 -0.1787
    1W        W46460  16.987   6.155   2.833  0.0204 -0.2429 -0.2276
    1W        W46461  15.976   3.997   2.420  0.0490  0.1582 -0.2047
    1W        W46462  29.697   9.078   7.219  0.0798  0.0549  0.1169
    1W        W46463   6.976   8.373   9.179  0.0279 -0.1805  0.3361
    1W        W46464   1.966  18.155   0.098  0.0533  0.0052  0.1022
    1W        W46465  22.463  19.918   6.990 -0.0482  0.0796 -0.1893
    1W        W46466  10.263  20.982   0.130 -0.0086  0.2922  0.1904
    1W        W46467  11.886  11.383   0.820 -0.1269 -0.1511 -0.3939
    1W        W46468  19.724   7.581   0.256  0.0556  0.0008  0.1816
    1W        W46469   3.878   4.813   7.271  0.0342 -0.3111 -0.0310
    1W        W46470  10.941  10.087   1.863  0.0218  0.0495 -0.0353
    1W        W46471  24.826   9.719   8.046  0.0987  0.0093 -0.1098
    1W        W46472  27.213  13.454   6.355 -0.1484 -0.1950 -0.0943
    1W        W46473  22.199   3.347   2.913  0.0922 -0.1891 -0.1025
    1W        W46474  21.636  14.800   1.259 -0.0503 -0.2014 -0.1450
    1W        W46475   8.576   4.712   2.094 -0.0823  0.0204  0.2007
    1W        W46476  23.597  17.436   8.494 -0.2142 -0.1953 -0.3117
    1W        W46477   0.449  20.978   7.054 -0.0287 -0.1068  0.0368
    1W        W46478   5.415   9.305   6.498 -0.1282 -0.0171 -0.1806
    1W        W46479  24.162  26.978   0.400 -0.1811 -0.3872  0.1214
    1W        W46480  25.456  17.421   7.195  0.1312 -0.1471  0.3876
    1W        W46481   4.423  28.050   6.935 -0.1390  0.0451  0.1451
    1W        W46482  14.363  11.009   0.524  0.0722  0.2285  0.1436
    1W        W46483   5.783   4.765   2.193 -0.0419 -0.2360  0.0182
    1W        W46484  26.459  19.064   2.005  0.0401 -0.0724 -0.3455
    1W        W46485   0.045  22.261   8.929  0.0670 -0.1296 -0.0027
    1W        W46486   7.203  10.997   7.639  0.0308  0.1093 -0.1526
    1W        W46487  12.908   1.435   3.172  0.5754  0.0062 -0.0809
    1W        W46488   9.505  18.348   9.427  0.2888  0.0404 -0.1402
    1W        W46489  11.109  21.537   0.061 -0.1312  0.3337 -0.0366
    1W        W46490  23.830  25.250   8.222 -0.0072 -0.0328 -0.0276
    1W        W46491   8.101  23.126   8.678 -0.1238  0.0771 -0.1124
    1W        W46492  27.584  16.891   9.310 -0.1720 -0.1552  0.2240
    1W        W46493  11.822  22.847   0.696  0.1248  0.1372  0.0419
    1W        W46494  24.185  24.327   7.726  0.1420 -0.2311 -0.1407
    1W        W46495   5.747   3.471   0.251  0.1248 -0.1434  0.1867
    1W        W46496   9.680  21.829   0.301 -0.0791  0.0697 -0.3681
    1W        W46497  19.029   0.900   0.047 -0.1656  0.0607 -0.0724
    1W        W46498  20.787  22.411   3.043 -0.1880  0.0276  0.1438
    1W        W46499   3.693   9.423   2.287  0.0514  0.0536 -0.0601
    1W        W46500  26.641   4.621   1.823  0.0126  0.0420  0.0328
    1W        W46501  22.754  11.865   1.343 -0.3106 -0.0103 -0.4774
    1W        W46502  20.010  27.043   9.328 -0.1032 -0.1833  0.1630
    1W        W46503  23.835   8.349   7.272  0.0888  0.3547  0.4017
    1W        W46504   6.612  17.817   7.875  0.1984 -0.3990 -0.0153
    1W        W46505   8.620  12.149   0.835 -0.0340 -0.3482 -0.4079
    1W        W46506  21.265   2.111   6.890 -0.3255 -0.1730 -0.0150
    1W        W46507  27.517  22.208   1.005  0.0837  0.1622  0.2115
    1W        W46508   1.782   0.383   1.775  0.0576  0.3057 -0.2153
    1W        W46509   2.049  27.463   2.693  0.1774 -0.0358 -0.0862
    1W        W46510  20.463   4.099   1.582 -0.0957 -0.1061 -0.0183
    1W        W46511  21.014  10.252   0.012 -0.2899 -0.2752  0.1333
    1W        W46512  25.752   4.704   6.206  0.3148  0.2995  0.3681
    1W        W46513  28.908  18.624   8.131 -0.1421 -0.0583  0.2384
    1W        W46514  21.907  11.430   2.176  0.1216  0.2879 -0.1190
    1W        W46515   0.662   2.904   3.751 -0.0263 -0.2095 -0.0834
    1W        W46516   9.195  11.487   0.664 -0.0436  0.0746 -0.0135
    1W        W46517  27.158  12.774   5.713  0.0028 -0.0991  0.0531
    1W        W46518   4.663   5.535   7.648  0.2435 -0.0540  0.0727
    1W        W46519  10.128  28.858   0.490 -0.0655  0.1910 -0.1999
    1W        W46520  24.552  16.013   1.310  0.2696 -0.2374 -0.1425
    1W        W46521   3.839  14.989   1.438  0.1446 -0.1686  0.1727
    1W        W46522  28.876  12.007   9.342 -0.0690 -0.0494  0.1445
    1W        W46523  20.518  26.038   9.288  0.3468 -0.1065 -0.1717
    1W        W46524  14.839  12.084   7.485 -0.0345 -0.1064  0.0785
    1W        W46525   5.453  25.872   7.312 -0.0681  0.3429  0.0438
    1W        W46526  17.608   0.524   1.913  0.3678 -0.3251 -0.1438
    1W        W46527  29.658  14.269   2.130  0.1954 -0.0847 -0.2384
    1W        W46528  10.817   4.611   7.971 -0.1257 -0.0013 -0.1981
    1W        W46529  10.819   6.488   2.978  0.2700  0.1463  0.3123
    1W        W46530  18.164  16.514   8.374 -0.3311  0.2086 -0.1813
    1W        W46531  27.964  17.486   1.864 -0.0937 -0.2456  0.1329
    1W        W46532   8.310  16.445   8.059  0.0698  0.1556  0.1499
    1W        W46533  19.625   2.449   8.347 -0.0800  0.3042 -0.2425
    1W        W46534  13.959  15.167   7.468 -0.0293 -0.2536 -0.3529
    1W        W46535  10.052  21.500   1.587  0.0605 -0.3221  0.2689
    1W        W46536   0.575  20.063   7.159  0.1445 -0.1433  0.2837
    1W        W46537   8.938   7.791   3.707 -0.3268  0.2286  0.0541
    1W        W46538  11.985  10.239   2.680  0.2617 -0.1573 -0.0583
    1W        W46539  13.249  25.597   1.532 -0.1053  0.2128  0.0753
    1W        W46540   5.260  26.410   2.461  0.1772 -0.1613  0.4398
    1W        W46541   5.027  13.621   6.462  0.0672  0.2063 -0.2337
    1W        W46542  23.132   8.661   0.883  0.0697 -0.2366 -0.0763
    1W        W46543  17.300   3.725   1.331  0.1691 -0.1326 -0.0771
    1W        W46544   0.113   3.174   7.453 -0.0403 -0.1732  0.3483
    1W        W46545   4.451   9.035   0.107  0.0583  0.0536 -0.0355
    1W        W46546   5.734  12.730   6.496  0.1809  0.0764  0.1991
    1W        W46547   5.110   0.511   8.826  0.2309  0.3403 -0.1528
    1W        W46548   1.767  19.851   1.010  0.1359  0.0164  0.0819
    1W        W46549  11.453   4.017   8.420  0.2921  0.0308 -0.1747
    1W        W46550  10.201  25.880   8.034 -0.2265  0.1263  0.0407
    1W        W46551  28.479   9.863   2.829 -0.1358 -0.0686  0.0627
    1W        W46552   9.268   8.313   0.969  0.1652  0.0130  0.2202
    1W        W46553  18.933  21.389   7.608 -0.2504 -0.0652 -0.0821
    1W        W46554   1.249  18.413   6.817 -0.0675 -0.0294 -0.1236
    1W        W46555  15.699  27.462   3.037 -0.0379  0.2960 -0.2207
    1W        W46556  23.555   9.046   1.028  0.0307 -0.2645 -0.0945
    1W        W46557  12.791  11.648   9.196  0.2000 -0.1829 -0.0477
    1W        W46558  20.925   7.937   0.085  0.4999  0.0361  0.1445
    1W        W46559  19.763  12.069   0.911  0.0582 -0.0567 -0.2161
    1W        W46560  21.415   6.934   8.958 -0.1890 -0.0758  0.2243
    1W        W46561  15.595  21.091   6.766 -0.1877  0.0923  0.0940
    1W        W46562   7.221   0.502   1.606  0.0578 -0.3539 -0.3204
    1W        W46563  25.248   3.277   1.326 -0.0336  0.0828  0.1934
    1W        W46564  23.692  27.251   0.249  0.0671 -0.0075  0.3518
    1W        W46565  21.119   0.480   7.089 -0.0483  0.0165 -0.1048
    1W        W46566  14.317  11.611   8.003 -0.0022 -0.0030 -0.0955
    1W        W46567  23.752   2.928   8.906 -0.0669 -0.0340 -0.0851
    1W        W46568  17.834  22.043   2.698 -0.2339  0.2501 -0.1294
    1W        W46569  13.461  27.423   8.387  0.0640  0.1711 -0.0708
    1W        W46570  23.777  13.187   8.080  0.0910  0.1479  0.1807
    1W        W46571  27.775  23.992   1.894 -0.0255  0.2944  0.1574
    1W        W46572  16.910  18.112   7.240  0.0586  0.1831 -0.1467
    1W        W46573  28.636  10.574   0.764 -0.1082  0.1516 -0.0087
    1W        W46574   4.997   5.648   1.472  0.0555 -0.0646  0.2612
    1W        W46575  26.228  12.728   6.116 -0.1105  0.0161 -0.0334
    1W        W46576  13.432   4.119   9.029  0.2771 -0.1799  0.0786
    1W        W46577   0.821  17.255   6.132  0.1347 -0.0130  0.1689
    1W        W46578  23.034  29.607   6.984  0.0941 -0.1405 -0.0046
    1W        W46579  12.619   9.182   1.336  0.0938  0.1395  0.1168
    1W        W46580   7.205  10.166   9.196  0.0190 -0.0265 -0.0091
    1W        W46581   8.163   4.422   2.179 -0.2815  0.1612 -0.0201
    1W        W46582   2.182  26.827   2.719  0.0853 -0.1345  0.2691
    1W        W46583   3.509  14.752   8.418 -0.3444 -0.0100  0.4983
    1W        W46584  11.110  11.614   9.183 -0.0970 -0.0276 -0.1627
    1W        W46585  20.391   5.448   2.206  0.1826 -0.2559 -0.0521
    1W        W46586   8.687   3.068   7.750 -0.0426 -0.0085  0.0057
    1W        W46587   3.876   3.090   0.924 -0.0603 -0.3461 -0.0188
    1W        W46588   5.327  28.701   0.924  0.1086  0.3280  0.0303
    1W        W46589  10.768   9.601   1.899 -0.1426  0.2577  0.1050
    1W        W46590  29.265   6.590   0.048 -0.1788 -0.0541 -0.0013
    1W        W46591  16.556  19.750   0.951 -0.0421 -0.1477  0.0265
    1W        W46592  10.889  21.933   2.275 -0.0373  0.0520 -0.1582
    1W        W46593  28.460   2.634   9.103 -0.0680 -0.3076 -0.2671
    1W        W46594  17.842   6.964   7.485 -0.1506 -0.2243 -0.0109
    1W        W46595  11.119   3.489   0.493 -0.2181 -0.1117  0.0761
    1W        W46596   2.847  13.443   0.084 -0.1656 -0.3161 -0.0319
    1W        W46597   5.406  23.407   1.087 -0.0873 -0.1860  0.0295
    1W        W46598  23.970  17.921   2.216  0.1944 -0.2444  0.1215
    1W        W46599  27.865  26.561   0.140  0.0859  0.0701  0.1621
    1W        W46600  22.326   9.943   5.830  0.1830 -0.1372  0.1605
    1W        W46601   8.498   2.626   1.318  0.0698 -0.1243  0.0787
    1W        W46602  16.917   4.775   0.299  0.3535  0.0414  0.0499
    1W        W46603   4.842  25.040   0.024  0.0002 -0.3141  0.1053
    1W        W46604  18.115   1.271   3.029  0.0188  0.2236  0.0698
    1W        W46605  15.513  17.996   7.646  0.2125 -0.1739 -0.1934
    1W        W46606  18.985  13.021   8.211 -0.1325 -0.1675  0.1278
    1W        W46607   7.605  25.609   9.187 -0.2156 -0.2681  0.0863
    1W        W46608  17.685  11.230   1.167  0.0957 -0.2079 -0.2091
    1W        W46609   7.367  18.203   7.473 -0.0256  0.1625 -0.1180
    1W        W46610  14.913   2.012   2.625  0.1240  0.1399 -0.0588
    1W        W46611  22.910  19.982   1.997  0.0848 -0.0108  0.2979
    1W        W46612  11.407   7.956   8.456 -0.2077 -0.1369 -0.0712
    1W        W46613   7.307   2.936   7.313  0.0118  0.3945  0.0010
    1W        W46614  20.590  21.487   2.961  0.1123  0.2635 -0.2610
    1W        W46615  20.883  11.253   0.319  0.0081  0.2255 -0.1691
    1W        W46616  24.445   3.531   8.511  0.0653  0.0103  0.3461
    1W        W46617  15.182   5.087   6.526 -0.3937  0.2258 -0.0291
    1W        W46618  24.206  23.515   2.551  0.0207 -0.0275 -0.1560
    1W        W46619   6.017  10.896   7.615 -0.0259  0.0544  0.0120
    1W        W46620  27.317  28.718   2.099  0.1744  0.0980  0.1022
    1W        W46621  27.571  24.201   8.105  0.3164 -0.2676  0.1741
    1W        W46622  29.105  23.132   1.281  0.0749  0.1910 -0.1738
    1W        W46623  26.896   1.608   1.676 -0.0460  0.0030 -0.0266
    1W        W46624  28.122   5.617   1.550  0.2283 -0.2219  0.1974
    1W        W46625   2.716  18.907   7.811 -0.5053  0.0884 -0.2907
    1W        W46626   6.083   5.090   2.655 -0.0945  0.1954 -0.2404
    1W        W46627  20.000   2.540   7.237  0.0688 -0.2467  0.2252
    1W        W46628  26.170  23.472   0.076 -0.0017  0.0598 -0.0176
    1W        W46629   7.729  17.905   6.636  0.0910 -0.0920  0.1408
    1W        W46630   0.183   9.056   8.968 -0.1985 -0.0710  0.3533
    1W        W46631  18.945  17.767   0.826 -0.0981  0.1244 -0.2204
    1W        W46632   1.745  11.994   8.185  0.1405 -0.0758  0.1330
    1W        W46633  13.211  22.375   7.385  0.0399  0.1475  0.0929
    1W        W46634  21.320  11.292   6.731 -0.1508  0.2223  0.0058
    1W        W46635   5.667  28.834   0.014 -0.3228  0.0210  0.1223
    1W        W46636  29.272  29.318   2.002  0.1687 -0.2286  0.1543
    1W        W46637   9.232  11.067   0.278 -0.2579 -0.1449  0.0205
    1W        W46638  20.830  11.491   6.574 -0.1549 -0.2114  0.3291
    1W        W46639  28.881  17.059   8.730  0.0519  0.1795 -0.3176
    1W        W46640  28.291  15.153   0.286 -0.0062  0.0644 -0.3432
    1W        W46641   8.661   3.817   0.307  0.1384 -0.0885  0.3625
    1W        W46642   3.779   6.092   2.737 -0.0712  0.0075  0.1565
    1W        W46643  16.553  27.145   2.777 -0.0258  0.0124 -0.0283
    1W        W46644  24.354  13.806   5.709  0.1133 -0.1013 -0.0418
    1W        W46645  10.034  15.481   0.418  0.1596 -0.1437  0.0009
    1W        W46646  18.056   0.419   8.019 -0.3249  0.0142 -0.0598
    1W        W46647  15.614  18.287   8.308 -0.1727  0.1745  0.1074
    1W        W46648  14.235  23.975   7.522  0.2701  0.0859  0.0032
    1W        W46649  17.783  14.574   6.944  0.3591 -0.1330 -0.2911
    1W        W46650   0.212  23.126   2.091 -0.1588 -0.1442  0.2163
    1W        W46651  28.043  11.818   1.297  0.0596 -0.0423 -0.3407
    1W        W46652   2.322  18.098   8.712 -0.2936 -0.0259  0.1156
    1W        W46653  12.040   3.239   9.214 -0.0115  0.1534 -0.2744
    1W        W46654  28.835   3.192   7.695  0.3455 -0.0871  0.0428
    1W        W46655  14.427   5.367   2.497 -0.4645 -0.2370 -0.0843
    1W        W46656  21.101  28.951   8.523  0.0870  0.1234  0.2079
    1W        W46657  28.991  18.522   8.663 -0.1431  0.2110 -0.0436
    1W        W46658   9.419  20.181   8.554  0.3131  0.0831  0.3708
    1W        W46659   0.958  24.348   2.003 -0.0457 -0.0005 -0.2475
    1W        W46660   9.968  10.226   9.350  0.0226 -0.4309 -0.0122
    1W        W46661   3.897  28.243   8.106  0.0886 -0.0758 -0.0233
    1W        W46662  20.177  13.286   6.417  0.0189 -0.1028 -0.1313
    1W        W46663  11.060  12.219   0.601  0.0919 -0.0564  0.0849
    1W        W46664  20.124  19.115   7.564 -0.0375 -0.0809  0.1560
    1W        W46665   3.648   2.970   1.395 -0.2155  0.3051  0.0154
    1W        W46666   8.264  18.633   2.075 -0.2946 -0.2015  0.1121
    1W        W46667  11.156   0.557   3.502  0.1041 -0.2069 -0.1499
    1W        W46668   2.919   9.402   7.612  0.2568  0.1074 -0.1031
    1W        W46669   8.425  23.450   7.437  0.1020  0.1066  0.1943
    1W        W46670   1.055  11.846   6.309  0.1487  0.0240 -0.0380
    1W        W46671  20.654  18.832   2.892 -0.0952  0.2092 -0.1953
    1W        W46672  16.890   8.696   7.073  0.0617  0.0505 -0.1004
    1W        W46673  14.914   8.960   0.240  0.1155 -0.3061  0.2049
    1W        W46674   1.294  11.768   8.464 -0.0105  0.0763 -0.1115
    1W        W46675  25.405  19.613   7.084  0.0079 -0.0165  0.0177
    1W        W46676   7.908  23.562   8.532  0.4446 -0.0056  0.1042
    1W        W46677  10.361   5.774   7.433 -0.1767 -0.1677 -0.1386
    1W        W46678   5.111   4.013   2.207  0.2657  0.0902 -0.0739
    1W        W46679   0.160   6.722   2.560 -0.1904 -0.2673  0.0379
    1W        W46680  22.583   1.397   7.249 -0.6080  0.3523  0.2462
    1W        W46681   8.362  17.299   8.143 -0.0200  0.0140 -0.1368
    1W        W46682  17.062   4.393   8.382 -0.0523  0.0570 -0.0682
    1W        W46683  20.906  16.224   7.092 -0.1428  0.0788  0.0440
    1W        W46684   7.439  28.799   6.925 -0.1427  0.0200 -0.1066
    1W        W46685  29.417  28.348   0.662  0.0801 -0.3047  0.0341
    1W        W46686   2.565  25.614   6.951 -0.2048 -0.1391 -0.2487
    1W        W46687  23.237   7.625   1.339  0.1732  0.4455  0.0905
    1W        W46688   5.555  25.622   0.857 -0.1057 -0.0328  0.0972
    1W        W46689   3.934  14.599   0.116 -0.0868  0.1674 -0.0164
    1W        W46690  17.531  27.787   7.418 -0.2362 -0.0692  0.0121
    1W        W46691   5.111  28.528   0.090 -0.0731 -0.0524 -0.0409
    1W        W46692  26.853   0.634   2.390 -0.0043  0.2158  0.1325
    1W        W46693  28.721  16.952   7.441  0.0894 -0.1780  0.0649
    1W        W46694  18.031  29.690   0.624  0.0309  0.3054  0.1392
    1W        W46695  12.069   3.051   1.050 -0.1210 -0.3325  0.1138
    1W        W46696  15.672  24.461   6.001 -0.1552 -0.0586 -0.2364
    1W        W46697  28.641   1.114   1.621 -0.0654 -0.2054 -0.0946
    1W        W46698  23.109  28.892   1.742 -0.1620  0.0811 -0.0194
    1W        W46699  26.873  20.781   7.722 -0.0611  0.0525 -0.0941
    1W        W46700  16.699   9.737   1.490 -0.2073 -0.3393  0.0702
    1W        W46701   5.516   8.173   1.153  0.0527 -0.3803 -0.0757
    1W        W46702   3.945  22.466   7.260 -0.2209 -0.2898 -0.0437
    1W        W46703  14.267  18.420   1.387 -0.3788  0.1269  0.0414
    1W        W46704  11.726   2.335   2.595  0.1855 -0.1974 -0.0014
    1W        W46705  17.726  21.527   0.780 -0.2958  0.1848  0.1381
    1W        W46706  20.127  13.591   1.597  0.0607  0.3651  0.1134
    1W        W46707  29.767  20.021   0.050 -0.1011 -0.2407  0.1355
    1W        W46708  25.774   2.001   8.982 -0.0170 -0.1364  0.2188
    1W        W46709  10.706  12.621   0.598 -0.1741 -0.1578 -0.2149
    1W        W46710  10.996   0.753   0.438 -0.1932  0.1421 -0.1365
    1W        W46711  18.731   9.695   8.470  0.2161 -0.2971 -0.0549
    1W        W46712  25.004   1.525   2.677 -0.0742  0.0609 -0.0191
    1W        W46713  13.792  15.506   7.967  0.1203  0.0328 -0.2390
    1W        W46714  27.121   1.580   7.548  0.0847  0.0743  0.0111
    1W        W46715  25.474   2.495   1.972 -0.2397  0.2718 -0.2521
    1W        W46716   6.060  18.817   0.767  0.2593 -0.1332  0.0525
    1W        W46717  24.328  11.517   8.864 -0.1632 -0.2573  0.0610
    1W        W46718   6.144   5.024   1.245 -0.0070 -0.1842  0.3369
    1W        W46719  26.696  28.644   9.381 -0.2923  0.1071 -0.0562
    1W        W46720   0.886  25.215   1.566 -0.0464  0.1432 -0.3033
    1W        W46721   6.918   9.170   8.979 -0.0813 -0.3668 -0.1232
    1W        W46722  22.083   1.873   1.029 -0.2792 -0.0424  0.0757
    1W        W46723   6.420   6.609   7.601 -0.0418  0.1674 -0.2377
    1W        W46724   9.552  18.246   0.897 -0.2714 -0.0549 -0.2479
    1W        W46725  10.843  12.530   0.127 -0.1365 -0.1118 -0.0588
    1W        W46726   7.890   7.419   8.240 -0.0651  0.1122  0.0740
    1W        W46727   1.243   1.500   1.328  0.0373 -0.3186 -0.0192
    1W        W46728  15.116  29.711   2.702  0.2109 -0.0954  0.0606
    1W        W46729   7.689   4.046   7.516 -0.1395 -0.0381 -0.1246
    1W        W46730  23.367  26.913   1.200 -0.0934 -0.4685 -0.1526
    1W        W46731  21.506  10.127   8.473  0.0567 -0.2840 -0.2374
    1W        W46732  28.847  13.736   1.707  0.0596  0.0518  0.3356
    1W        W46733   0.841  21.130   1.667 -0.1544 -0.5478  0.2058
    1W        W46734  16.793  24.164   1.463 -0.0865 -0.0402 -0.1016
    1W        W46735  25.208  11.633   9.339  0.0768 -0.4747 -0.1200
    1W        W46736  29.644  15.122   6.235  0.0277  0.0244  0.1508
    1W        W46737  11.163   8.210   2.017 -0.1096  0.0523  0.2094
    1W        W46738  15.059   6.539   7.606 -0.0469 -0.0564 -0.0700
    1W        W46739  16.528   7.597   7.228  0.0282 -0.0660 -0.1113
    1W        W46740   9.964  19.605   7.048 -0.0753 -0.1577  0.1561
    1W        W46741  26.292  25.285   8.164  0.2054  0.1900  0.2284
    1W        W46742  27.986   5.089   3.108 -0.0493  0.0362  0.0028
    1W        W46743  12.350   1.910   6.630 -0.1664  0.1974 -0.2568
    1W        W46744  19.631  21.057   0.894 -0.0571  0.1057 -0.2096
    1W        W46745   9.796  29.174   9.180  0.1315 -0.0570 -0.0879
    1W        W46746  28.841  13.056   7.692 -0.2298 -0.0038 -0.2377
    1W        W46747  25.737  21.167   9.243 -0.2808  0.1135 -0.0026
    1W        W46748  18.658  13.609   9.437 -0.0049  0.1256 -0.0569
    1W        W46749  14.667  23.602   7.896  0.2159  0.0650 -0.0864
    1W        W46750   8.779   2.284   0.764 -0.0381 -0.2825  0.0792
    1W        W46751  10.492  25.100   6.155 -0.3120  0.0315  0.1592
    1W        W46752  28.651  26.583   8.233 -0.3610  0.1123 -0.0198
    1W        W46753   2.065  25.738   6.806  0.1925 -0.3049  0.0109
    1W        W46754   6.236  14.785   1.573 -0.1720 -0.0488 -0.2112
    1W        W46755   7.234  18.056   0.199  0.0097 -0.1361 -0.0491
    1W        W46756   0.757   4.868   6.924 -0.0918  0.0826  0.2520
    1W        W46757  10.813  25.182   7.029 -0.0007  0.4468  0.1226
    1W        W46758  28.804  27.588   0.336  0.0329  0.1269  0.4438
    1W        W46759  29.309  27.691   1.203 -0.0608 -0.0077 -0.1924
    1W        W46760  29.451   3.485   8.517  0.3499  0.1105 -0.1790
    1W        W46761  28.972  25.954   7.613  0.1371  0.2055 -0.1444
    1W        W46762  18.591  19.323   7.394 -0.4410 -0.1950  0.1547
    1W        W46763   8.612   6.344   2.047 -0.5159  0.1172  0.1761
    1W        W46764  15.374  24.984   2.445 -0.1311  0.1222 -0.1290
    1W        W46765  23.137  14.445   0.964  0.4774 -0.1462  0.0200
    1W        W46766  24.776  13.796   6.075  0.1703 -0.0333  0.1186
    1W        W46767   6.613  28.956   8.604  0.5587 -0.2384  0.1291
    1W        W46768  20.139  21.703   8.293  0.0556  0.2468  0.2747
    1W        W46769  11.613   8.323   2.190  0.1468 -0.0901 -0.3025
    1W        W46770  16.694  21.251   9.146 -0.3668 -0.0219  0.1431
    1W        W46771  25.034  22.134   1.233 -0.0020  0.0293  0.2017
    1W        W46772  10.785  25.397   2.204  0.0714  0.0734  0.1256
    1W        W46773  27.186  21.881   0.420  0.0944  0.0063 -0.1791
    1W        W46774  24.294  25.839   6.825  0.1156 -0.0916  0.5878
    1W        W46775   0.574  25.731   1.498  0.1040 -0.2418 -0.0940
    1W        W46776  22.303  16.736   6.629  0.1387 -0.2383 -0.1743
    1W        W46777   6.957  27.741   8.656  0.1824  0.0467 -0.1921
    1W        W46778  17.492  13.697   7.405 -0.1982  0.1157 -0.0274
    1W        W46779  10.078  21.864   1.924 -0.0624  0.1904 -0.1507
    1W        W46780   5.511  18.903   1.775  0.1827  0.3651  0.1647
    1W        W46781  24.932   8.656   9.410 -0.2224  0.0084 -0.0827
    1W        W46782  18.025   3.530   1.446 -0.0493  0.3517 -0.1614
    1W        W46783   0.188   3.879   9.181 -0.2117  0.2253  0.1174
    1W        W46784  14.994  28.798   9.035  0.0086  0.1846 -0.2364
    1W        W46785  11.033   8.283   1.516  0.2770 -0.1929 -0.1002
    1W        W46786   8.665   7.355   0.356  0.1446 -0.1547 -0.1972
    1W        W46787   7.913   0.198   0.639  0.1385 -0.1529  0.0464
    1W        W46788  15.529  23.948   1.158  0.0737  0.0260 -0.0968
    1W        W46789  14.773  29.250   8.965 -0.1017 -0.0121 -0.1466
    1W        W46790  17.416  22.666   0.861 -0.2755  0.1899  0.4061
    1W        W46791   9.352   4.004   2.291 -0.0454 -0.0543  0.2744
    1W        W46792  22.811   4.209   8.339  0.0023 -0.0217 -0.0142
    1W        W46793   2.715   4.646   3.179 -0.1224 -0.0474  0.1658
    1W        W46794  24.844  16.342   6.930 -0.0022  0.1211 -0.0660
    1W        W46795   4.948   6.752   0.391  0.1129  0.1636 -0.0565
    1W        W46796  21.278   5.658   1.777 -0.0254 -0.2909 -0.0672
    1W        W46797  19.171  21.701   9.173  0.0776  0.0214  0.2900
    1W        W46798  15.074   0.960   1.763 -0.0019 -0.2095  0.3491
    1W        W46799  27.938  13.457   1.358  0.0359 -0.2027 -0.0139
    1W        W46800   0.436  17.671   8.902 -0.1874 -0.1798 -0.0920
    1W        W46801   5.675   0.828   2.211 -0.0169 -0.2896  0.1201
    1W        W46802   2.741  10.238   8.109  0.3000  0.2339  0.0327
    1W        W46803  20.834  15.876   1.638  0.1986 -0.2107 -0.0610
    1W        W46804  27.950  22.957   7.356  0.0171 -0.1319  0.1048
    1W        W46805  26.580  28.753   1.578  0.0070  0.0327 -0.1755
    1W        W46806  28.437   8.123   7.994  0.0087 -0.1383 -0.0966
    1W        W46807   9.967   6.117   2.633 -0.1023 -0.0017 -0.2629
    1W        W46808   0.041  15.034   6.987 -0.0736 -0.1658  0.1186
    1W        W46809   9.892   7.454   3.361  0.0105  0.1526  0.2857
    1W        W46810  26.336  18.487   7.073 -0.0504  0.1907  0.0017
    1W        W46811  23.676  25.877   9.436 -0.0039 -0.1036 -0.0622
    1W        W46812  25.494  21.237   8.083 -0.0565  0.1222 -0.1421
    1W        W46813  14.705  27.762   1.848  0.1412  0.1487  0.0008
    1W        W46814  18.386  26.938   0.735  0.0038 -0.1589 -0.3940
    1W        W46815   2.220   7.364   8.130  0.0156  0.0535  0.1593
    1W        W46816   5.756  25.738   6.946 -0.1640 -0.1630  0.0504
    1W        W46817  24.983  20.947   0.597 -0.2296  0.1366 -0.2175
    1W        W46818  15.064  11.822   7.071  0.0475  0.3832 -0.0198
    1W        W46819  27.555  11.480   0.848  0.0479  0.1553  0.0831
    1W        W46820  19.870  17.075   7.326  0.1175 -0.0400  0.1682
    1W        W46821  25.198  17.526   1.067  0.0106 -0.1093  0.0495
    1W        W46822  10.942   5.078   4.026  0.2448  0.4497  0.1302
    1W        W46823   8.869  27.454   8.493  0.0674 -0.1478 -0.2748
    1W        W46824  12.950  25.625   7.120  0.1189  0.1703 -0.2447
    1W        W46825  26.824  25.442   7.995  0.0349  0.1153 -0.0916
    1W        W46826   8.081  25.554   6.619  0.0282  0.2461  0.1538
    1W        W46827   2.970  14.226   1.996 -0.0366  0.1424  0.1939
    1W        W46828  23.158  18.609   1.315  0.0065  0.1210  0.0380
    1W        W46829  27.879  28.672   1.192  0.2783 -0.2354  0.1373
    1W        W46830  15.271   8.507   0.379  0.1145 -0.1200 -0.1849
    1W        W46831  11.287  12.967   1.732  0.1496  0.0021 -0.1667
    1W        W46832  13.905   1.041   1.113 -0.2865  0.1374 -0.1624
    1W        W46833  12.947  16.700   1.893  0.0125  0.0209  0.2342
    1W        W46834  12.540  17.386   7.997  0.0704  0.0672  0.0437
    1W        W46835   8.860  15.429   6.968 -0.3293  0.1618  0.1401
    1W        W46836  17.137  13.001   1.533 -0.0682  0.1990 -0.4739
    1W        W46837  19.185  23.603   0.657 -0.3532  0.1936 -0.1865
    1W        W46838  14.711   4.418   8.763  0.2347 -0.2047  0.0344
    1W        W46839   0.878  10.184   8.135  0.1956 -0.0278 -0.0085
    1W        W46840  20.145   1.092   9.435  0.2076 -0.1013  0.0136
    1W        W46841  15.300   4.220   7.273  0.1513  0.3241  0.0329
    1W        W46842   0.779  18.495   7.035  0.0686 -0.2249 -0.1093
    1W        W46843   8.477   5.507   0.503  0.0682 -0.1650 -0.0233
    1W        W46844   8.110  25.928   9.446  0.2149 -0.1207 -0.3058
    1W        W46845  12.792  18.055   7.570 -0.0845 -0.0099  0.0484
    1W        W46846   5.650  15.995   6.094 -0.4896  0.0439 -0.1547
    1W        W46847  22.980  26.868   0.416  0.0615  0.0361  0.2966
    1W        W46848   0.188   7.873   0.725 -0.1401  0.1504 -0.0269
    1W        W46849   8.418   2.414   0.428 -0.0853  0.1538 -0.1759
    1W        W46850   0.234  19.039   0.876  0.0518 -0.0362  0.0157
    1W        W46851  29.277   9.407   2.919  0.0254  0.1221  0.1444
    1W        W46852  26.232   2.221   8.948 -0.0241  0.3934 -0.0859
    1W        W46853   9.867  27.983   2.015  0.2943 -0.1284 -0.2604
    1W        W46854  22.034   3.368   1.077  0.2183 -0.1000 -0.1460
    1W        W46855   0.909  11.215   2.647  0.0264  0.0290 -0.0637
    1W        W46856   9.960  24.181   8.930  0.1605  0.0150  0.1082
    1W        W46857  10.839   3.302   1.083  0.0984 -0.0470 -0.0590
    1W        W46858   6.437  14.637   2.046 -0.0432  0.0514 -0.0879
    1W        W46859  11.978  19.683   0.182  0.1956  0.0603  0.0187
    1W        W46860  19.989   6.202   2.525  0.0040 -0.3533  0.0225
    1W        W46861  23.705  29.197   8.761  0.2410 -0.1991 -0.0837
    1W        W46862   4.077  17.630   7.347 -0.1694 -0.1984 -0.3647
    1W        W46863  13.541  27.820   2.785 -0.0694  0.3071  0.2345
    1W        W46864  14.842  26.434   0.776  0.1060 -0.1082 -0.3055
    1W        W46865  20.877  29.398   1.607  0.1321  0.3617 -0.0122
    1W        W46866  26.999  10.382   8.700  0.1362 -0.0222 -0.0577
    1W        W46867   4.515   3.546   8.067 -0.2420 -0.1541  0.1380
    1W        W46868  25.587  17.535   6.487  0.0811 -0.0215 -0.0274
    1W        W46869  22.550   3.305   0.408 -0.1155 -0.2522  0.1338
    1W        W46870  14.843  13.604   0.284 -0.1008  0.0594  0.0598
    1W        W46871   9.715   4.629   1.809  0.0325 -0.0164  0.1064
    1W        W46872  26.256  24.201   8.216 -0.1835  0.2521  0.3265
    1W        W46873  11.971  28.452   9.289  0.0013  0.1113  0.3506
    1W        W46874  26.141   1.908   7.336 -0.2580 -0.1956  0.5148
    1W        W46875  22.178   4.662   6.341  0.2646 -0.1167  0.1721
    1W        W46876  15.364  22.326   1.524  0.2420  0.2025  0.1189
    1W        W46877   8.333   9.290   1.538 -0.0571  0.1527  0.1247
    1W        W46878  15.772  10.656   8.731  0.1836  0.2947 -0.1588
    1W        W46879  11.113   1.074   0.916  0.0106  0.0923  0.0811
    1W        W46880  18.293  28.519   7.746 -0.2944 -0.1164  0.1724
    1W        W46881   5.183   0.409   1.614  0.2105  0.1381 -0.2366
    1W        W46882  28.017   5.425   2.429 -0.3986  0.2506  0.2684
    1W        W46883  26.108  23.140   1.475  0.0308 -0.5125  0.0766
    1W        W46884   1.102  16.507   8.339 -0.2264  0.0471  0.1820
    1W        W46885  26.344  22.070   7.556 -0.0542  0.1865 -0.0947
    1W        W46886  18.699  19.567   0.532  0.3367 -0.1210  0.0199
    1W        W46887   2.093   4.473   1.487  0.1907 -0.1601 -0.0072
    1W        W46888  13.060   4.890   1.834 -0.3059  0.0262  0.0201
    1W        W46889   1.647   0.217   7.680 -0.1354  0.3122 -0.5204
    1W        W46890  27.594  23.246   9.054 -0.1539  0.0915  0.1148
    1W        W46891   3.377  25.508   6.183 -0.1024 -0.0612 -0.0050
    1W        W46892  10.686  16.734   8.354 -0.0151 -0.0395 -0.3877
    1W        W46893   6.757  14.117   6.980 -0.0169 -0.0764 -0.2578
    1W        W46894   1.838  14.169   1.080  0.2494  0.2616  0.0352
    1W        W46895  12.675   5.262   8.977  0.0202 -0.0317 -0.1525
    1W        W46896   9.978  12.297   1.457  0.0379  0.0085  0.2236
    1W        W46897  16.250   7.062   7.016  0.2299 -0.2330 -0.2295
    1W        W46898  14.140   6.315   0.279  0.2710  0.1010 -0.0467
    1W        W46899  18.508   3.478   0.171  0.2531  0.2307  0.4059
    1W        W46900   2.344  12.811   3.018 -0.1250  0.1443 -0.3814
    1W        W46901  12.050   6.861   1.951  0.0209 -0.1853  0.3450
    1W        W46902  18.944  17.852   1.439 -0.3723  0.0839 -0.1764
    1W        W46903   3.482  24.957   1.368  0.4718  0.1736 -0.1414
    1W        W46904   7.703   1.714   3.142 -0.0884  0.1644 -0.2823
    1W        W46905  14.143   2.180   3.083  0.1375 -0.0568  0.2561
    1W        W46906  19.457  24.500   1.460 -0.1727 -0.3141 -0.1617
    1W        W46907   0.959  27.817   2.078 -0.2244  0.0748 -0.1750
    1W        W46908  26.305  29.453   7.612  0.2401  0.0514 -0.4185
    1W        W46909  17.317  20.422   9.120 -0.3536 -0.1944  0.1968
    1W        W46910  14.035  14.076   7.785 -0.2730 -0.1274  0.2930
    1W        W46911   9.423  26.884   7.218 -0.1135  0.4258  0.0764
    1W        W46912  12.817   9.147   8.144  0.0063  0.1206  0.4524
    1W        W46913  24.007   6.379   3.293  0.0595  0.0611  0.0087
    1W        W46914  12.048  24.717   7.838 -0.0989 -0.0810 -0.0333
    1W        W46915  24.282  28.301   2.041 -0.0863  0.0009 -0.0489
    1W        W46916  12.065  16.439   7.652 -0.3040  0.3139 -0.1731
    1W        W46917   2.637  18.069   0.786  0.0778 -0.0492  0.1746
    1W        W46918   6.004   5.743   3.291  0.2038 -0.1595 -0.0190
    1W        W46919  12.381  25.352   1.347 -0.1888  0.1823 -0.1351
    1W        W46920   1.058  12.136   8.799 -0.1247  0.1631  0.0150
    1W        W46921  23.801   4.757   2.374 -0.0359  0.0759  0.1144
    1W        W46922  24.022  22.473   0.578  0.2712  0.3741  0.0928
    1W        W46923  16.628  12.971   8.487 -0.3158  0.0999 -0.0744
    1W        W46924  12.846  18.934   2.403  0.0789 -0.3731 -0.1176
    1W        W46925   6.307   1.406   8.881 -0.2535 -0.1982 -0.3015
    1W        W46926  16.872  24.944   3.490  0.2717 -0.2455 -0.0789
    1W        W46927   8.359   4.546   3.341 -0.0637  0.1805  0.2960
    1W        W46928   2.175   1.382   0.354  0.0682 -0.1843  0.0570
    1W        W46929  27.071  13.005   7.174  0.3237  0.3193  0.2382
    1W        W46930  11.653  26.024   3.318  0.1741  0.0620  0.1843
    1W        W46931  24.649  15.396   6.811  0.1550  0.0892 -0.3381
    1W        W46932  17.922  26.745   8.548 -0.2379  0.0212 -0.1059
    1W        W46933   5.215  12.653   6.177  0.0144 -0.0676 -0.1439
    1W        W46934   6.250   8.307   0.452  0.1888 -0.3036  0.0832
    1W        W46935  26.595  24.096   7.332 -0.1529 -0.0617  0.0062
    1W        W46936  22.900   1.703   0.032 -0.3748 -0.1189  0.2951
    1W        W46937  19.623  26.375   0.907 -0.0893  0.0796  0.1024
    1W        W46938  11.416  28.248   1.404  0.1230 -0.2804 -0.0626
    1W        W46939  20.678  28.689   8.731  0.1687  0.1193  0.0049
    1W        W46940  27.640   0.046   3.078 -0.0696  0.1489 -0.2803
    1W        W46941  15.979   4.822   0.376 -0.3969  0.1155 -0.1379
    1W        W46942  24.747   0.592   2.190 -0.0259 -0.1007  0.1739
    1W        W46943  14.423  23.388   1.581  0.1009  0.3301  0.2268
    1W        W46944   1.713  18.053   0.569  0.1689  0.3068 -0.0658
    1W        W46945  25.086  23.652   2.238  0.1607 -0.2532  0.1709
    1W        W46946  20.163  16.068   6.715 -0.1640 -0.0650  0.0665
    1W        W46947  18.080   0.681   2.220  0.0476 -0.0999  0.4648
    1W        W46948   5.583  10.748   1.896 -0.1418 -0.0980  0.1472
    1W        W46949   0.531  20.640   2.210  0.0510 -0.0242  0.2665
    1W        W46950   6.643   2.732   0.031  0.2588 -0.2155  0.0694
    1W        W46951  18.606  11.124   1.568 -0.1303  0.3265 -0.0588
    1W        W46952   2.540  18.094   6.725 -0.2695  0.0983 -0.1485
    1W        W46953   2.099  20.642   0.202 -0.0029  0.0343  0.2774
    1W        W46954   4.821   9.025   8.933 -0.1433 -0.0942 -0.2152
    1W        W46955  15.323  27.746   7.046  0.2491 -0.0265 -0.0300
    1W        W46956  29.186   4.257   7.707  0.1461  0.1180 -0.4333
    1W        W46957   5.511  15.060   0.663  0.1083  0.2425  0.1813
    1W        W46958  24.044   6.430   7.482  0.1212 -0.2476  0.6208
    1W        W46959  12.138   8.215   1.878 -0.1229  0.1082  0.0994
    1W        W46960   3.235   5.519   3.541 -0.0136 -0.1304 -0.0308
    1W        W46961  10.307  19.852   8.900  0.0314 -0.0704 -0.0460
    1W        W46962  22.266  22.692   1.683 -0.2318  0.1375 -0.0155
    1W        W46963  22.797  26.908   9.373  0.0028 -0.0326 -0.0361
    1W        W46964  23.665  23.627   2.779 -0.0989 -0.0931 -0.0208
    1W        W46965   6.911   9.293   8.025  0.0489  0.1978  0.2364
    1W        W46966   5.711   0.602   0.595  0.2952 -0.0161 -0.1193
    1W        W46967  27.128  15.220   0.218  0.1022  0.2552  0.2553
    1W        W46968  13.723  22.061   6.535 -0.0341 -0.3405  0.0241
    1W        W46969  23.335   3.741   6.701  0.3231 -0.1882  0.0082
    1W        W46970  18.331  10.740   1.815 -0.1220 -0.2018 -0.0864
    1W        W46971   7.525  18.992   7.535 -0.1804  0.0831 -0.0368
    1W        W46972   3.066  26.700   1.716  0.1744 -0.2660 -0.3260
    1W        W46973  14.012  14.574   7.660  0.0783 -0.2746 -0.1750
    1W        W46974   9.412   6.326   7.626  0.2573 -0.0873 -0.0745
    1W        W46975  15.571  10.589   6.663  0.0156 -0.0207 -0.2267
    1W        W46976  12.517  12.086   7.331  0.0878  0.0838  0.2946
    1W        W46977  25.991  19.026   9.045 -0.0020 -0.0894  0.0514
    1W        W46978   3.782  26.131   1.212  0.1666 -0.0318 -0.2119
    1W        W46979  25.572   6.623   6.666  0.0248  0.0667 -0.1145
    1W        W46980  27.045  15.506   8.424  0.0880  0.0342  0.2017
    1W        W46981   5.832  21.428   0.949  0.1727  0.0054  0.1979
    1W        W46982   1.652  19.898   9.232  0.0472  0.0967 -0.1159
    1W        W46983   0.067  12.150   0.465  0.1625  0.1227 -0.1861
    1W        W46984  12.749  21.738   1.641 -0.1517 -0.0484 -0.1592
    1W        W46985  18.130   7.442   6.699 -0.2802 -0.1317  0.2249
    1W        W46986  21.107  23.155   1.159 -0.0065 -0.0286  0.1326
    1W        W46987  21.253  12.236   0.163  0.0421 -0.1208 -0.0374
    1W        W46988  28.177  19.632   7.892 -0.2238 -0.0032  0.0858
    1W        W46989   1.302   4.953   8.434 -0.0689  0.0282  0.1401
    1W        W46990   3.522  11.758   2.449 -0.3644  0.0847  0.3708
    1W        W46991  21.147   3.632   7.739  0.0612 -0.0865 -0.1962
    1W        W46992   9.750   5.468   8.924  0.2506 -0.0303 -0.1942
    1W        W46993   4.155  20.617   2.723  0.0985 -0.3188  0.1346
    1W        W46994  10.815  23.417   5.929  0.1065 -0.0727  0.0139
    1W        W46995   9.118  25.600   7.387  0.0519  0.2743  0.3993
    1W        W46996  16.785   3.115   8.124  0.0615 -0.1240 -0.0842
    1W        W46997   5.139   3.734   8.958 -0.0075  0.0456 -0.2562
    1W        W46998  28.571  13.509   7.010  0.2859  0.0323  0.1383
    1W        W46999   6.575   9.902   1.275  0.0059 -0.4622 -0.2697
    1W        W47000  20.361  22.262   9.096 -0.1350 -0.1937 -0.1546
    1W        W47001  24.704  17.353   8.035  0.1308 -0.1519  0.0448
    1W        W47002  26.274   2.881   2.096 -0.0417 -0.1643  0.1182
    1W        W47003   5.638  29.180   9.041  0.0667 -0.1790  0.0145
    1W        W47004  24.736  29.344   7.005 -0.0176  0.1791 -0.0670
    1W        W47005   2.717   3.377   1.737 -0.1184  0.2853  0.0098
    1W        W47006  24.810   6.457   2.255 -0.0058 -0.4962 -0.0041
    1W        W47007   3.060   2.046   8.590 -0.1075 -0.1265 -0.0884
    1W        W47008  27.485  23.581   3.033 -0.1141  0.3115  0.0678
    1W        W47009  16.447  17.324   8.507  0.2532 -0.0807  0.2176
    1W        W47010  28.738  10.134   7.849 -0.0714  0.3825 -0.0902
    1W        W47011  15.139  24.890   9.178  0.0213  0.0940 -0.2075
    1W        W47012  22.883  13.561   1.501  0.1009  0.1321 -0.0378
    1W        W47013   1.978  11.655   0.472  0.1866 -0.2728  0.2080
    1W        W47014  15.184   3.344   6.583  0.0032 -0.1528 -0.0313
    1W        W47015  18.208  17.394   9.156 -0.1735  0.1546 -0.0971
    1W        W47016  27.433  23.249   1.210 -0.2174 -0.1812  0.0121
    1W        W47017   9.634  22.990   0.297 -0.2506  0.0557 -0.1297
    1W        W47018   9.453  22.955   1.663 -0.1502  0.3586 -0.1332
    1W        W47019   4.587   3.493   3.284 -0.1619  0.1178  0.2500
    1W        W47020  13.786  16.994   1.253  0.0276  0.6675  0.0629
    1W        W47021   6.488   1.133   8.181  0.2866 -0.2283  0.0723
    1W        W47022   5.407   6.499   0.614 -0.2292  0.1861  0.0195
    1W        W47023   1.830  17.622   0.090  0.1635 -0.1866  0.0373
    1W        W47024  20.394  19.640   7.894 -0.0140 -0.1093 -0.1060
    1W        W47025  23.779   2.655   3.395  0.0767 -0.1674 -0.3857
    1W        W47026  27.382  29.473   3.177  0.0876 -0.1584  0.1721
    1W        W47027  25.834   6.961   3.204 -0.0854 -0.2809 -0.1437
    1W        W47028  27.173  14.271   6.476  0.0033  0.1587  0.1499
    1W        W47029  13.966   4.803   9.267  0.0430  0.1755 -0.1750
    1W        W47030  18.953   1.695   1.961 -0.1135  0.0086  0.1677
    1W        W47031  21.297  14.251   6.608 -0.0054 -0.2558  0.1814
    1W        W47032  29.342  17.106   8.589  0.0153 -0.2423  0.0752
    1W        W47033  15.900  21.355   0.907 -0.2223  0.0196  0.1748
    1W        W47034  11.239   9.310   2.093 -0.4557 -0.0288  0.2795
    1W        W47035  22.782  22.147   0.856  0.1082  0.1856 -0.4530
    1W        W47036   4.817  21.123   6.270 -0.0749  0.0548  0.1707
    1W        W47037  25.802  28.016   2.545  0.0701 -0.1286  0.1532
    1W        W47038  20.326  10.943   1.602 -0.2401 -0.0556  0.1788
    1W        W47039  27.795  22.434   9.015 -0.0704  0.2504  0.1314
    1W        W47040  21.971   1.619   1.925 -0.0029  0.1340  0.0292
    1W        W47041  24.600   4.034   8.170 -0.0378  0.0244  0.0386
    1W        W47042  18.084   3.696   8.532  0.3445 -0.0966 -0.1318
    1W        W47043  19.739   3.156   2.850  0.0207 -0.1271 -0.0911
    1W        W47044  11.595  22.303   0.596  0.0853 -0.1368  0.1833
    1W        W47045  19.879   1.937   2.097  0.0295 -0.0367  0.2888
    1W        W47046   3.109  28.610   0.934 -0.4050  0.1577  0.0735
    1W        W47047  18.357  10.631   8.456  0.0705 -0.2127 -0.2085
    1W        W47048  24.378   3.724   2.296 -0.1183 -0.1645  0.3413
    1W        W47049   2.113  21.818   8.749  0.0278  0.1045  0.3071
    1W        W47050  14.383  26.386   7.750  0.0280 -0.1721 -0.1348
    1W        W47051  25.186   9.492   0.153 -0.0447 -0.1224  0.0005
    1W        W47052  14.520  18.674   6.515 -0.3642  0.1751 -0.0429
    1W        W47053  29.783   5.294   8.843 -0.2343  0.0191  0.0650
    1W        W47054  20.310  18.612   8.927  0.1197  0.0608 -0.1619
    1W        W47055   9.273  10.936   9.139 -0.1179  0.1097 -0.0442
    1W        W47056   5.936  24.345   2.726  0.1258 -0.1972  0.0243
    1W        W47057  10.608  20.838   9.259 -0.1402  0.2847  0.1076
    1W        W47058  18.576   5.187   8.499 -0.3341  0.0588  0.0444
    1W        W47059  15.601  25.323   3.252  0.1206  0.0445 -0.0495
    1W        W47060  23.528  10.267   1.646 -0.0223  0.0015  0.0914
    1W        W47061   1.516  10.057   8.074  0.0301  0.2085  0.2504
    1W        W47062  17.979   1.129   9.359 -0.2384 -0.0515  0.0998
    1W        W47063  22.876  29.304   7.364 -0.1186  0.0451 -0.1669
    1W        W47064   3.546  10.560   0.112 -0.2400 -0.3748  0.1778
    1W        W47065  11.326  13.178   2.182 -0.3036 -0.2737 -0.1343
    1W        W47066   1.450  27.238   0.639 -0.2707  0.0219  0.1500
    1W        W47067  16.655   7.627   1.191 -0.0976  0.0580 -0.1427
    1W        W47068  26.797  23.428   9.012  0.2344  0.1991  0.3882
    1W        W47069  27.434  10.941   2.224 -0.0229  0.1756  0.0264
    1W        W47070  29.816  11.797   9.410  0.2487 -0.1897  0.1593
    1W        W47071  19.385   3.861   7.176  0.2479  0.1565 -0.1275
    1W        W47072   2.207   5.532   2.693 -0.1349 -0.1012 -0.0616
    1W        W47073   1.682   2.727   2.123  0.0133  0.0149 -0.1410
    1W        W47074   2.713  28.605   9.424 -0.0593  0.2192  0.3679
    1W        W47075   9.311  10.210   7.870  0.1134  0.2167  0.1415
    1W        W47076  25.898   1.004   7.502 -0.2332 -0.3187 -0.1717
    1W        W47077  19.385   5.171   9.010 -0.0257 -0.0292 -0.1064
    1W        W47078   7.590  24.019   9.063  0.2872 -0.0659 -0.1609
    1W        W47079  16.773   4.339   2.033  0.0100 -0.0818  0.1749
    1W        W47080   4.089   5.198   8.214  0.0630 -0.2370  0.0293
    1W        W47081  26.747  14.549   8.128 -0.2070  0.2868 -0.1704
    1W        W47082   0.146   5.094   7.154 -0.0214  0.0869  0.1945
    1W        W47083  23.644  15.066   9.122 -0.0665  0.2204  0.1466
    1W        W47084  16.861  20.905   8.839  0.0148 -0.0567  0.3029
    1W        W47085  12.829   3.500   2.861  0.3428 -0.1989  0.2023
    1W        W47086   0.719  11.488   6.511  0.1361 -0.0194 -0.0909
    1W        W47087  10.239   1.284   0.859  0.0261  0.1042  0.3245
    1W        W47088  21.403   0.800   7.971  0.0724 -0.2141 -0.0026
    1W        W47089  12.744   1.573   1.243  0.0502 -0.0843 -0.0089
    1W        W47090  14.716  28.734   7.726 -0.0080  0.1726  0.2407
    1W        W47091  11.277  13.563   7.238  0.0499  0.1538 -0.1246
    1W        W47092  26.595  15.043   7.813 -0.1494  0.4636 -0.1639
    1W        W47093   6.369   2.780   3.632 -0.1023 -0.0338 -0.2237
    1W        W47094  10.848   6.367   1.950 -0.2047  0.1552 -0.1692
    1W        W47095   2.576  24.950   6.046 -0.2329 -0.0584 -0.2031
    1W        W47096  14.119  11.128   8.106  0.3752 -0.2109 -0.1052
    1W        W47097  10.675  25.536   0.457 -0.0487 -0.3425  0.0407
    1W        W47098   3.777   2.541   2.603  0.1460  0.2337 -0.1676
    1W        W47099  28.282   4.524   7.984 -0.0035  0.0774 -0.0062
    1W        W47100  13.228  26.185   2.510 -0.1029  0.1888 -0.0739
    1W        W47101   5.466  10.591   8.125 -0.0378  0.0711 -0.0790
    1W        W47102  24.964  10.549   8.249 -0.0435 -0.0395 -0.0047
    1W        W47103  19.948   3.336   8.591  0.0751 -0.2268  0.0793
    1W        W47104  27.191  24.458   2.257 -0.1381  0.3501  0.2892
    1W        W47105  28.180  22.718   0.256  0.4610 -0.1683  0.2474
    1W        W47106   3.942   9.411   8.373  0.1421 -0.1059 -0.1550
    1W        W47107  19.139  20.547   7.416 -0.1545 -0.0508 -0.0881
    1W        W47108  18.884  26.180   1.699 -0.2368 -0.1318 -0.0027
    1W        W47109   5.650  22.620   7.172  0.0142 -0.1496  0.2133
    1W        W47110  17.492   8.773   0.488  0.2632 -0.3508  0.0845
    1W        W47111  17.912   5.678   0.172  0.1525 -0.1353  0.1681
    1W        W47112   9.499  27.973   1.701  0.2689 -0.1829 -0.2606
    1W        W47113  28.289  29.819   0.260  0.0125 -0.3163  0.2221
    1W        W47114  13.224  10.903   9.102 -0.1468  0.0516  0.0823
    1W        W47115  17.482   9.458   9.169 -0.3265  0.0126 -0.1708
    1W        W47116  26.963  20.167   6.089  0.1195 -0.0379 -0.3373
    1W        W47117  18.272   5.743   8.586 -0.1174  0.1566  0.2833
    1W        W47118   9.503   5.039   7.559 -0.0704 -0.2487  0.2317
    1W        W47119   6.820   3.497   8.040 -0.0569  0.0379 -0.1151
    1W        W47120   1.858  15.209   5.460 -0.1490 -0.2202 -0.0882
    1W        W47121   8.742   1.162   7.874  0.3987 -0.0051 -0.0179
    1W        W47122  28.784  18.154   7.797  0.0918  0.2009  0.0374
    1W        W47123  12.482   9.972   0.745 -0.0300 -0.1327  0.0520
    1W        W47124  25.943   7.316   8.606  0.1440 -0.0714 -0.2707
    1W        W47125   4.111   8.092   2.755  0.1377  0.0363 -0.0370
    1W        W47126   1.947   2.758   8.623  0.0305 -0.0503 -0.2847
    1W        W47127  11.018  11.533   1.658  0.0219 -0.2170  0.0114
    1W        W47128   6.886  19.240   7.674 -0.0692 -0.0077 -0.0691
    1W        W47129  21.690   1.057   7.428 -0.0191  0.2392  0.1222
    1W        W47130   8.597  21.115   0.877  0.1220 -0.1054 -0.2654
    1W        W47131  10.067  27.267   0.045 -0.0205 -0.2625  0.0142
    1W        W47132   1.887  29.722   9.443 -0.1523  0.0839 -0.1801
    1W        W47133  15.804  10.371   7.084 -0.0210 -0.0354  0.1187
    1W        W47134  20.120  24.111   7.431 -0.1736 -0.0886  0.1030
    1W        W47135  15.303  12.304   7.334 -0.0616 -0.0209  0.1919
    1W        W47136  23.528  28.568   2.583 -0.0639 -0.1208 -0.0287
    1W        W47137  15.995  11.809   2.032  0.0476 -0.0631  0.1272
    1W        W47138  11.119   6.143   0.100  0.1338  0.0462 -0.0342
    1W        W47139  23.027  11.386   9.335 -0.2279 -0.0752 -0.1109
    1W        W47140  12.975   9.216   0.990  0.1051  0.1494  0.0377
    1W        W47141  11.852   9.449   0.140 -0.1861  0.1885 -0.0073
    1W        W47142   9.974  10.874   8.201 -0.2607  0.1675 -0.0036
    1W        W47143  11.833  22.620   1.732  0.1306  0.2088 -0.1884
    1W        W47144  17.627  17.932   0.068  0.0131  0.1242 -0.1002
    1W        W47145  24.260  11.945   1.041  0.4030  0.0193 -0.1036
    1W        W47146  20.176   0.649   0.901 -0.0550  0.0156  0.0782
    1W        W47147  23.546  26.073   1.232 -0.0113 -0.1632  0.1631
    1W        W47148  20.750   6.339   2.161  0.3763 -0.1877 -0.0179
    1W        W47149  29.699  20.026   2.084  0.2224 -0.5002 -0.0125
    1W        W47150  29.178   2.756   7.685  0.1015 -0.0045  0.1559
    1W        W47151  27.292  23.997   8.461  0.1904  0.0635 -0.0260
    1W        W47152   7.423   0.850   2.861  0.3904 -0.2259  0.1091
    1W        W47153  27.561  20.158   7.837  0.1470  0.1727  0.2845
    1W        W47154   9.368   5.658   0.394  0.1367 -0.4808 -0.1732
    1W        W47155  27.872  22.712   2.281 -0.1891  0.1877  0.0336
    1W        W47156   5.735  26.799   9.187  0.2142 -0.3136  0.3291
    1W        W47157   1.950   8.562   1.695 -0.2509 -0.0336 -0.2419
    1W        W47158   6.758  14.917   0.441  0.1832 -0.0748 -0.1117
    1W        W47159  11.564  10.079   0.608  0.0524  0.0945 -0.1956
    1W        W47160   6.550  22.857   1.529 -0.1517 -0.1929 -0.2062
    1W        W47161  29.615   4.666   8.433 -0.2267  0.2467  0.1422
    1W        W47162  14.009  24.906   7.585 -0.2572 -0.1703 -0.2547
    1W        W47163  15.191  16.815   1.891  0.1715 -0.3549 -0.1089
    1W        W47164  12.572   7.694   0.268  0.1208 -0.0464  0.3151
    1W        W47165   7.723   7.464   1.427  0.0470  0.0517 -0.2204
    1W        W47166  24.188  15.278   6.573 -0.2073 -0.0970  0.3353
    1W        W47167   5.518   9.346   0.702  0.0250 -0.0012  0.2787
    1W        W47168  27.793  15.015   7.570 -0.0474 -0.2879 -0.0720
    1W        W47169  26.934   7.095   6.942  0.3475  0.3243  0.2452
    1W        W47170  17.772   5.491   7.770 -0.1650 -0.0821 -0.2539
    1W        W47171  13.367  16.820   7.500  0.1541 -0.1662  0.0602
    1W        W47172  21.391  20.392   0.098 -0.0089 -0.1937  0.0845
    1W        W47173  25.238  15.947   9.270  0.1924 -0.0060 -0.1830
    1W        W47174  12.974  27.597   8.186 -0.0524  0.0583 -0.0155
    1W        W47175  27.686  22.685   1.346 -0.1207 -0.0157  0.2031
    1W        W47176  10.971  10.338   7.298 -0.1311 -0.2002  0.1604
    1W        W47177  18.057  28.599   2.118  0.4811 -0.0702  0.0948
    1W        W47178  10.480   1.825   9.157 -0.0021  0.0668  0.0896
    1W        W47179   9.412  13.920   8.192 -0.2275  0.2276  0.0010
    1W        W47180  14.666   4.300   2.616  0.1365  0.3305  0.1098
    1W        W47181  25.273  21.206   9.376 -0.3726 -0.1759 -0.1370
    1W        W47182  18.687   3.795   8.487 -0.0009 -0.2476  0.2111
    1W        W47183  23.741  28.307   8.924 -0.0244 -0.1245 -0.1319
    1W        W47184  29.159   8.910   7.365 -0.1965 -0.1309 -0.1463
    1W        W47185   1.058   6.703   7.446  0.0527  0.2528  0.1873
    1W        W47186  23.321  15.519   7.499  0.1979 -0.1821 -0.3778
    1W        W47187   9.371  10.059   0.337 -0.1166  0.3277  0.0687
    1W        W47188  14.748  24.395   6.168 -0.0540 -0.0022 -0.0287
    1W        W47189  22.517   6.939   2.654  0.0269  0.1929  0.1262
    1W        W47190  27.363  10.173   8.941  0.1205 -0.0960  0.0713
    1W        W47191  26.522  16.393   2.153  0.0423 -0.1080  0.2862
    1W        W47192  25.346  14.536   1.428  0.2923  0.1210  0.0108
    1W        W47193  23.559  16.196   6.929  0.2291  0.0844  0.0948
    1W        W47194  22.084  19.839   2.070 -0.3774 -0.0606  0.0008
    1W        W47195   8.152  27.506   7.669  0.3849  0.2080 -0.1625
    1W        W47196   8.534  12.718   8.184  0.0821  0.0426  0.3017
    1W        W47197  27.733  29.608   1.305  0.1359  0.0837 -0.1998
    1W        W47198   6.789   6.792   9.332  0.0604  0.3085 -0.0001
    1W        W47199  27.470  28.755   8.496 -0.0211  0.2691  0.2014
    1W        W47200  18.264   1.341   7.304 -0.0177  0.1019  0.0750
    1W        W47201  18.617  10.039   9.434 -0.1544  0.1959  0.3838
    1W        W47202  18.260  21.148   8.204  0.1230 -0.3013 -0.1614
    1W        W47203  24.055  21.130   2.901 -0.3154  0.0547 -0.2587
    1W        W47204  15.567  20.934   0.114  0.3120 -0.4762 -0.2489
    1W        W47205  26.101   1.544   7.664 -0.2371  0.2605  0.1261
    1W        W47206  23.942  25.397   8.746 -0.5203 -0.0881 -0.0313
    1W        W47207  29.617  23.938   3.067 -0.0101 -0.0536 -0.1107
    1W        W47208  20.142  19.103   8.813  0.0967  0.0985 -0.1615
    1W        W47209  28.321  26.846   1.060  0.0387  0.0438  0.1869
    1W        W47210  20.115  19.895   8.742  0.1519 -0.0386 -0.3528
    1W        W47211  18.018   7.346   0.823  0.1173  0.1494  0.0475
    1W        W47212  18.953  23.830   1.062  0.0984  0.3533 -0.1520
    1W        W47213   2.056  16.133   0.654 -0.0121  0.1859 -0.3737
    1W        W47214  25.347  10.065   2.483  0.1165 -0.2066  0.1245
    1W        W47215  26.063   1.916   2.338 -0.0079  0.0935 -0.1619
    1W        W47216   2.319  18.181   7.224  0.1901 -0.2180  0.1508
    1W        W47217   1.878  23.224   8.202 -0.0033 -0.0118  0.0661
    1W        W47218   7.736  10.373   8.549 -0.0182 -0.0375 -0.0505
    1W        W47219  25.037  24.492   6.739 -0.0121  0.1876 -0.0109
    1W        W47220  23.993  10.740   7.135 -0.0480 -0.0483 -0.0853
    1W        W47221   8.460  18.156   1.879 -0.0460 -0.1743  0.3028
    1W        W47222  17.458  20.187   2.304  0.0273 -0.1624  0.0645
    1W        W47223  14.369  12.510   2.214 -0.5727 -0.1533  0.0246
    1W        W47224  28.973   0.741   7.038  0.0744 -0.0648 -0.2443
    1W        W47225   3.513   8.197   7.717 -0.3355 -0.0176 -0.0950
    1W        W47226  26.150  21.093   2.540  0.0805  0.0313  0.0541
    1W        W47227  25.655  17.693   2.294  0.0793  0.0638 -0.0721
    1W        W47228  10.868   6.258   6.973 -0.3151  0.1080 -0.2161
    1W        W47229  22.114  22.113   7.613 -0.0038  0.1483 -0.0171
    1W        W47230  27.960  11.115   6.706 -0.0946 -0.1226 -0.0424
    1W        W47231  15.526  27.018   9.156 -0.2353  0.0499 -0.1520
    1W        W47232   2.963   6.259   0.941 -0.1955 -0.0760 -0.0253
    1W        W47233   2.672   6.478   7.198  0.3325  0.5032 -0.1598
    1W        W47234  15.248   4.673   9.383 -0.1580  0.1402 -0.0359
    1W        W47235  25.238   6.549   2.026 -0.0579 -0.0664  0.1495
    1W        W47236   2.471  22.720   9.011  0.2604 -0.3458  0.0532
    1W        W47237   7.809  15.988   6.479  0.1373 -0.0888 -0.2485
    1W        W47238  26.549  18.109   1.914 -0.2693  0.1455 -0.0178
    1W        W47239  13.705   6.362   0.000  0.3765 -0.3143  0.1606
    1W        W47240  11.020  27.706   1.002  0.3307  0.1310  0.1487
    1W        W47241  23.354   2.223   2.177  0.1449 -0.2482 -0.1585
    1W        W47242   5.606  10.717   7.422 -0.1549 -0.1262  0.0307
    1W        W47243   8.516  29.361   2.112  0.0785  0.0537 -0.0787
    1W        W47244  21.955  18.496   2.370  0.1631  0.0160 -0.0528
    1W        W47245  26.617   4.300   8.787  0.2992 -0.2868 -0.3058
    1W        W47246  27.010  25.915   1.366 -0.0933  0.0699  0.0430
    1W        W47247   5.084  22.091   7.562 -0.3380 -0.0191 -0.3233
    1W        W47248  20.131   9.156   7.158  0.2364  0.0775 -0.1182
    1W        W47249  29.385  22.834   7.096 -0.0155 -0.2411 -0.0652
    1W        W47250  26.246   8.009   0.234 -0.0827 -0.1038 -0.0119
    1W        W47251  14.049  27.657   0.027 -0.1431 -0.2184  0.1204
    1W        W47252   2.902  13.955   6.746  0.0285  0.0301  0.1995
    1W        W47253  28.272   6.015   1.905 -0.2914  0.0353  0.1462
    1W        W47254   5.028   2.434   8.327 -0.1684  0.2212  0.1123
    1W        W47255  22.103  29.052   7.712 -0.0293 -0.2292 -0.0106
    1W        W47256  26.362  21.500   3.194  0.2744  0.0762  0.0503
    1W        W47257  15.012  27.523   7.435  0.0720 -0.0774 -0.0506
    1W        W47258   7.949  29.489   7.413 -0.0438  0.1363  0.0714
    1W        W47259  20.158   6.231   3.063  0.0210 -0.1113  0.0177
    1W        W47260  25.027   9.342   1.504  0.0345 -0.1790 -0.0309
    1W        W47261  25.045   7.362   3.181 -0.2261 -0.1399  0.1223
    1W        W47262  17.214  23.110   0.886  0.1374  0.1396  0.0946
    1W        W47263  22.790   9.214   8.865 -0.1235  0.0976 -0.2903
    1W        W47264  26.478  19.456   2.306 -0.6041 -0.0961 -0.4820
    1W        W47265   1.173  23.386   6.475  0.1883  0.0309  0.2493
    1W        W47266   2.198   6.295   6.995  0.1073  0.1886  0.1003
    1W        W47267   0.111  20.438   9.170  0.0269 -0.0974  0.1671
    1W        W47268  29.343   5.009   7.557  0.0516 -0.0461  0.0019
    1W        W47269  11.547   1.011   0.597  0.1502 -0.2383  0.2187
    1W        W47270  28.069  29.561   9.333  0.2105  0.2461  0.1296
    1W        W47271   7.685  28.698   0.647  0.0906  0.1188  0.3057
    1W        W47272  11.509   0.837   2.641  0.0492  0.1112  0.1977
    1W        W47273  22.524   5.210   1.523 -0.2796  0.0307 -0.1246
    1W        W47274  11.966  23.469   6.822 -0.0076  0.4074 -0.0847
    1W        W47275  14.372   7.610   8.134 -0.0354 -0.1538  0.0959
    1W        W47276   5.736   8.047   2.978 -0.0095 -0.1909  0.1519
    1W        W47277  19.081  25.326   8.207 -0.0318 -0.0961  0.2942
    1W        W47278   6.784  20.489   0.591 -0.1826  0.0043 -0.0980
    1W        W47279  25.325  13.732   1.802  0.1718 -0.1692 -0.0434
    1W        W47280  25.195   0.761   1.934 -0.1782  0.0410 -0.1506
    1W        W47281   0.852   7.655   2.295  0.3632 -0.1168  0.0933
    1W        W47282  29.512   8.526   8.210 -0.1230 -0.1753  0.0927
    1W        W47283  26.779   3.433   1.066  0.0586  0.1767 -0.0109
    1W        W47284  23.385  28.871   2.206 -0.0671  0.0509  0.1371
    1W        W47285  24.579   4.484   1.578  0.2765  0.0428  0.0968
    1W        W47286  27.945  25.515   8.997  0.3532 -0.0108 -0.0616
    1W        W47287   6.106   3.087   1.759 -0.5453 -0.0759  0.1502
    1W        W47288  21.871   5.902   0.257 -0.2808  0.3247 -0.0065
    1W        W47289  26.968  28.486   0.751 -0.4288  0.3936  0.3396
    1W        W47290  25.972   2.103   7.831  0.0887  0.0681 -0.0084
    1W        W47291  29.707   4.674   7.483 -0.0876 -0.1955 -0.1380
    1W        W47292  18.856  28.018   0.941 -0.0773  0.0214  0.0993
    1W        W47293  23.647  20.343   8.121  0.1327  0.1639 -0.1619
    1W        W47294   2.895  14.645   1.598 -0.0219 -0.0725 -0.1582
    1W        W47295  19.501   0.194   8.747  0.2778  0.0776  0.0107
    1W        W47296   0.197   9.371   7.970  0.2479  0.0427  0.2495
    1W        W47297  17.034   4.099   1.673 -0.3871  0.1927 -0.1206
    1W        W47298  26.715  11.867   8.442  0.0755 -0.1895  0.1331
    1W        W47299  12.319   2.330   2.075 -0.1264  0.1689  0.1843
    1W        W47300  18.217  24.021   1.323  0.0410 -0.2184 -0.0947
    1W        W47301  11.986   9.557   7.678  0.2869 -0.3634  0.2785
    1W        W47302   2.042  18.122   7.783 -0.1010  0.0706 -0.1272
    1W        W47303  21.877  11.321   0.827 -0.2182 -0.1160 -0.2395
    1W        W47304  19.101  20.578   2.131  0.0847 -0.0641 -0.0817
    1W        W47305   3.003  10.616   7.770 -0.0326  0.1055  0.0886
    1W        W47306   6.601  16.618   2.802  0.0707  0.2934 -0.3622
    1W        W47307   7.293   8.391   2.446 -0.1313 -0.1744  0.1496
    1W        W47308  19.583  22.328   7.250  0.1612 -0.0266  0.3035
    1W        W47309  11.222   2.794   2.642  0.0660 -0.2064  0.1156
    1W        W47310  21.060  21.471   3.025  0.0431 -0.0952 -0.0345
    1W        W47311  25.442  20.880   8.438  0.0088 -0.2194  0.0109
    1W        W47312   1.921  26.824   8.496  0.1138  0.0184 -0.0231
    1W        W47313  28.610  15.760   6.084 -0.1595  0.3557  0.1105
    1W        W47314  24.322  18.650   1.931  0.0928 -0.1580 -0.0129
    1W        W47315  16.173  18.568   1.261  0.0562  0.0576 -0.0412
    1W        W47316  25.018  24.240   9.165  0.0412  0.0904  0.1085
    1W        W47317  13.066  14.322   2.467  0.1304  0.1645 -0.1537
    1W        W47318  12.744  16.953   1.111 -0.0385 -0.2217 -0.3470
    1W        W47319  22.395   3.975   0.348  0.1626 -0.0366 -0.1091
    1W        W47320  20.086  28.871   1.054 -0.0248 -0.0285  0.1670
    1W        W47321  25.842  27.096   7.814 -0.0358 -0.0080 -0.1864
    1W        W47322  21.208   8.241   1.364  0.1192 -0.2106  0.4508
    1W        W47323  25.771   8.461   2.857  0.4865 -0.1202 -0.1263
    1W        W47324  15.473  23.880   6.800  0.0944 -0.1119  0.0396
    1W        W47325  25.701  18.194   1.622  0.0744 -0.5658 -0.0771
    1W        W47326  22.279  18.751   1.955 -0.0059  0.1764 -0.1062
    1W        W47327   2.551  24.581   8.707 -0.0537 -0.0740  0.0356
    1W        W47328  22.019   6.028   8.867  0.0419  0.3582  0.1571
    1W        W47329   9.800   9.348   8.217 -0.0912  0.0163 -0.1968
    1W        W47330  21.422  15.427   1.241  0.1907 -0.1609 -0.3316
    1W        W47331   6.150  23.873   7.130 -0.0464  0.2331 -0.1246
    1W        W47332  23.218  10.314   0.657 -0.1856  0.0571  0.1807
    1W        W47333  10.899  20.072   0.537 -0.0238  0.0935  0.2147
    1W        W47334  26.627   6.674   1.577  0.1575 -0.1797  0.0460
    1W        W47335   7.671  17.865   8.932  0.1021  0.2018 -0.0397
    1W        W47336   4.999  15.772   6.616 -0.2068 -0.1147  0.1263
    1W        W47337  21.504  27.483   0.965  0.1460  0.0223  0.1659
    1W        W47338   6.225  11.163   8.224  0.0477  0.0843  0.1798
    1W        W47339   8.341   9.600   7.984 -0.1264  0.0488 -0.2104
    1W        W47340  16.287  10.326   2.808 -0.0895 -0.0198 -0.0332
    1W        W47341  23.055   4.326   1.726 -0.2226  0.1834 -0.1555
    1W        W47342  17.310  26.147   2.413 -0.1926  0.3847  0.3430
    1W        W47343  26.461  24.747   1.923  0.1376 -0.2462 -0.0565
    1W        W47344  15.685  28.171   9.428 -0.3235  0.0582  0.0203
    1W        W47345  18.637  19.679   8.222  0.0300 -0.3520 -0.0552
    1W        W47346  29.078  11.226   2.667 -0.0728  0.2009 -0.0628
    1W        W47347   7.967   4.775   1.392  0.1234 -0.0885 -0.1599
    1W        W47348  29.099  11.615   6.050  0.0279  0.3991  0.2422
    1W        W47349  17.297  18.173   6.798  0.2198 -0.0922 -0.0847
    1W        W47350  15.972  29.792   7.582  0.1280  0.2745 -0.1734
    1W        W47351  22.111  27.440   8.232 -0.0835  0.0544  0.1178
    1W        W47352  12.585   9.552   0.948  0.0728  0.1084 -0.1172
    1W        W47353  25.998   5.018   7.122 -0.0330 -0.0642  0.1002
    1W        W47354  17.544  16.402   0.069 -0.1105 -0.0622 -0.0804
    1W        W47355   7.753  16.330   1.927  0.3896  0.0164 -0.3337
    1W        W47356  12.281  19.499   8.602 -0.2856  0.1404 -0.0047
    1W        W47357   2.527  26.545   1.649  0.0402  0.1527 -0.2370
    1W        W47358  14.138  25.285   1.130 -0.0001  0.1450  0.3280
    1W        W47359   7.131  18.066   0.818  0.3633 -0.1870 -0.1825
    1W        W47360  21.286  28.949   8.008  0.0493  0.0646 -0.1040
    1W        W47361  20.637  10.042   8.087  0.0086 -0.5050 -0.0625
    1W        W47362  19.579  14.281   0.986 -0.3100 -0.0352 -0.5134
    1W        W47363   5.372   1.113   0.662 -0.2045  0.1495 -0.0230
    1W        W47364  21.820   4.289   7.201  0.2782 -0.2866 -0.0117
    1W        W47365  18.303  19.179   1.423 -0.0022  0.1065  0.0104
    1W        W47366   2.361  29.738   7.067  0.1432 -0.2536  0.2622
    1W        W47367  29.315  26.597   0.468 -0.1878  0.0509  0.2109
    1W        W47368   7.128  27.013   6.375 -0.1320 -0.1889  0.0144
    1W        W47369  29.541  15.635   6.277 -0.1034 -0.1902  0.0932
    1W        W47370  24.868   0.481   1.122 -0.0254  0.2178  0.1734
    1W        W47371  14.283   0.806   1.388  0.1054  0.0985  0.1150
    1W        W47372   6.739  19.997   6.641 -0.0200 -0.1464  0.1410
    1W        W47373  29.191  18.792   7.287 -0.3013  0.0044 -0.2115
    1W        W47374  26.026  10.485   1.441 -0.1176 -0.1542 -0.0901
    1W        W47375   2.362   4.620   2.412  0.0175  0.0935  0.0680
    1W        W47376  21.377  24.252   7.820  0.3283 -0.0049  0.0413
    1W        W47377  21.075  17.592   7.484 -0.0622 -0.1735 -0.0725
    1W        W47378  17.427   5.646   6.849 -0.0265  0.0004  0.0649
    1W        W47379  28.665   4.508   1.883 -0.2098 -0.1903 -0.1006
    1W        W47380  23.602  16.053   6.446  0.0761  0.1874 -0.1196
    1W        W47381  29.252  10.861   9.184 -0.1409  0.1282  0.0062
    1W        W47382  15.407  24.993   7.183  0.0193 -0.2195  0.2297
    1W        W47383   3.296  13.831   7.476  0.3210 -0.3086 -0.3126
    1W        W47384  28.671  25.567   7.703  0.1823 -0.0205 -0.0302
    1W        W47385  21.492  27.200   1.428 -0.0717 -0.3372 -0.1813
    1W        W47386   6.529   9.067   2.718 -0.0634 -0.0469  0.0392
    1W        W47387   5.595   2.630   2.546 -0.0561  0.2231 -0.1546
    1W        W47388   2.971  27.829   7.473 -0.0292 -0.1196 -0.0449
    1W        W47389   1.807   9.653   2.016  0.0832 -0.1087  0.0390
    1W        W47390   1.944  26.274   9.222  0.0691 -0.1132  0.0464
    1W        W47391   3.348   3.512   0.010  0.1481 -0.1100 -0.1354
    1W        W47392  19.626  12.073   8.897  0.0265  0.2137 -0.1141
    1W        W47393   2.067  13.020   2.608 -0.0185  0.0703 -0.1978
    1W        W47394  15.933   0.271   8.904  0.0678 -0.1838 -0.0704
    1W        W47395   3.263   7.168   1.225  0.0510  0.1336 -0.3544
    1W        W47396  14.469  24.977   7.371 -0.0300 -0.2102  0.0644
    1W        W47397  20.861  15.065   8.581  0.0442 -0.0426 -0.0553
    1W        W47398  24.393  29.508   8.798  0.0843  0.0016  0.0167
    1W        W47399  14.555  12.766   7.166 -0.4113  0.2004  0.3016
    1W        W47400  14.984   0.055   0.235  0.3328 -0.2101  0.1740
    1W        W47401  24.348  19.896   1.557  0.0459  0.0528  0.1347
    1W        W47402  29.493  18.273   0.099 -0.0064  0.4916 -0.2205
    1W        W47403   6.570  10.453   3.242  0.0006  0.1559 -0.0644
    1W        W47404  14.915   3.301   8.684  0.1107  0.4264 -0.0557
    1W        W47405  23.215   1.119   2.262 -0.0548 -0.0526  0.2628
    1W        W47406   2.115   6.936   3.050 -0.0658  0.4173 -0.0571
    1W        W47407  28.870  14.621   8.623  0.2745 -0.4039 -0.1081
    1W        W47408   4.001  18.652   7.387 -0.1709 -0.1655  0.0917
    1W        W47409  12.289   9.012   2.936  0.0555  0.0750  0.0831
    1W        W47410   6.035   8.140   7.016 -0.0582  0.2786  0.2251
    1W        W47411  14.200  18.916   2.481  0.3171  0.1436 -0.1054
    1W        W47412  26.828  14.775   7.020 -0.0227 -0.1782  0.3608
    1W        W47413   9.884  20.127   2.514  0.1517 -0.1249 -0.2278
    1W        W47414   0.774  20.018   5.786 -0.0332 -0.1000  0.1710
    1W        W47415   0.672   2.629   3.312  0.0516  0.2025  0.2507
    1W        W47416  17.558   0.291   1.497 -0.2082 -0.0282 -0.1167
    1W        W47417  10.950   5.580   0.869 -0.2945 -0.1269 -0.0607
    1W        W47418   7.916  18.555   0.385 -0.2113 -0.0663  0.1542
    1W        W47419  12.782  18.040   9.394  0.1244 -0.4319  0.3073
    1W        W47420   1.639  27.528   8.884 -0.3577 -0.0896 -0.3973
    1W        W47421  14.098  21.581   8.606 -0.0787  0.2319 -0.0805
    1W        W47422  29.344   8.083   8.351  0.0875 -0.0433 -0.0902
    1W        W47423   7.775   8.105   2.558  0.0645 -0.0374  0.1059
    1W        W47424  18.024  14.796   6.563 -0.0305  0.2176 -0.2741
    1W        W47425   0.634  20.431   1.114 -0.0336 -0.1464  0.5338
    1W        W47426  22.190  25.127   7.211  0.3048 -0.2068  0.3201
    1W        W47427  19.252  23.587   0.150 -0.0327 -0.0072 -0.0248
    1W        W47428   3.154  15.361   6.198 -0.0963  0.1025  0.1254
    1W        W47429  26.337   3.802   1.457 -0.3209 -0.3826  0.0256
    1W        W47430  24.417   5.497   8.321 -0.0183  0.0502 -0.2006
    1W        W47431   5.664  23.428   8.426 -0.1131  0.0342 -0.1003
    1W        W47432   0.652   8.205   0.761  0.3526  0.0819 -0.0052
    1W        W47433  20.217  12.104   2.189  0.0965 -0.1073 -0.1352
    1W        W47434   1.026   8.953   0.170  0.0209  0.2225  0.0572
    1W        W47435  20.556   8.482   0.997 -0.0230  0.4835  0.0673
    1W        W47436  22.083  13.479   7.035 -0.1999 -0.2779  0.0050
    1W        W47437   8.099  17.809   8.634  0.1050 -0.3142  0.0119
    1W        W47438  28.226   3.133   9.144 -0.1896 -0.0553  0.2583
    1W        W47439  20.704  27.397   7.234  0.1490 -0.0284 -0.1467
    1W        W47440  19.887   7.968   7.635 -0.1085  0.0849 -0.1824
    1W        W47441  28.599   1.422   7.482 -0.2751 -0.2271  0.0026
    1W        W47442   4.792  16.132   5.627  0.1923  0.1274  0.1272
    1W        W47443  16.900   6.881   1.101  0.1079  0.0578 -0.0741
    1W        W47444  13.215   4.119   8.566 -0.2737  0.0806 -0.0350
    1W        W47445   4.598  17.135   7.918 -0.0557  0.4431  0.3132
    1W        W47446  16.097   2.374   9.039  0.0773 -0.1727 -0.2506
    1W        W47447  13.031  13.352   9.074 -0.1678 -0.0222  0.1050
    1W        W47448   8.717   2.966   9.417  0.1526  0.4341  0.0078
    1W        W47449  21.290  21.781   1.792  0.0423 -0.0482  0.0440
    1W        W47450   3.336  22.714   0.803  0.2572 -0.0172  0.1463
    1W        W47451  27.213  29.264   8.717  0.2265  0.1109  0.1669
    1W        W47452  25.451  24.581   9.067 -0.0785  0.0350 -0.0650
    1W        W47453  19.974   8.974   1.846  0.2089  0.1756  0.2311
    1W        W47454  15.581   4.404   9.118 -0.0067  0.2065  0.0637
    1W        W47455   6.989   9.646   6.746  0.1269  0.3123 -0.0266
    1W        W47456  11.483  26.439   3.070  0.2248  0.1002 -0.4072
    1W        W47457   1.059  13.982   1.624  0.0227  0.0157 -0.0713
    1W        W47458   7.784  14.840   0.778  0.2550 -0.0708 -0.1790
    1W        W47459  16.386  12.896   6.954 -0.0899 -0.1269 -0.0931
    1W        W47460  28.088   4.330   9.383  0.0271  0.2201 -0.0835
    1W        W47461   7.981   7.828   0.345 -0.2089 -0.2888 -0.1677
    1W        W47462  19.483  18.853   8.971 -0.1618  0.0265  0.1536
    1W        W47463   2.211  23.372   1.188  0.4347 -0.2690 -0.0148
    1W        W47464  20.856  26.484   9.170 -0.3478 -0.1279 -0.0544
    1W        W47465  27.756   2.374   7.659 -0.0756 -0.1514 -0.0532
    1W        W47466  27.429   4.748   9.146 -0.1410  0.2712  0.1792
    1W        W47467  29.610  29.081   8.022 -0.3265 -0.3564 -0.0032
    1W        W47468   3.227  16.748   0.930 -0.1529 -0.3112 -0.2569
    1W        W47469  21.701  20.645   9.246  0.0607  0.1370 -0.0069
    1W        W47470  26.385   3.220   8.959 -0.1400 -0.0454  0.0435
    1W        W47471   6.188  19.845   0.771  0.1646 -0.3245  0.1900
    1W        W47472  26.246   5.044   2.872  0.0602  0.0510 -0.2493
    1W        W47473   3.380   6.756   1.477  0.1593  0.1804 -0.0771
    1W        W47474   2.174   9.122   0.684 -0.1379 -0.1305 -0.0457
    1W        W47475  28.787  27.402   8.742 -0.2383  0.0380 -0.3312
    1W        W47476  22.049   2.857   2.624 -0.0003 -0.0294  0.0183
    1W        W47477  27.013   9.550   2.323  0.2078  0.2482 -0.3362
    1W        W47478  18.364  11.555   7.311 -0.1551  0.0971 -0.0087
    1W        W47479   6.866  10.548   8.404 -0.0946 -0.2548  0.2388
    1W        W47480   4.666   9.338   3.362  0.1481  0.0171  0.0133
    1W        W47481   6.298  14.773   5.652  0.0249  0.0893 -0.1531
    1W        W47482  17.251  27.071   2.584 -0.1396  0.1146  0.2322
    1W        W47483   0.343  20.881   9.145 -0.2725  0.0350  0.2118
    1W        W47484  25.243  29.746   8.948 -0.2439  0.1111  0.1190
    1W        W47485  10.896  12.085   8.316 -0.1358 -0.0647  0.0136
    1W        W47486  25.745   0.656   8.961 -0.1739  0.2151  0.0919
    1W        W47487   4.014  21.140   7.858  0.0826 -0.3747 -0.3415
    1W        W47488   2.047  15.771   2.565  0.1015 -0.0187 -0.1100
    1W        W47489  12.869  17.781   0.886  0.3129  0.0992  0.2079
    1W        W47490  15.332  13.711   2.475 -0.0042  0.2810  0.0365
    1W        W47491  17.402   5.080   0.334  0.0891 -0.1922 -0.0559
    1W        W47492  24.512  12.954   2.285  0.1542  0.0106  0.2043
    1W        W47493   4.866  18.323   9.223  0.0458 -0.0076  0.1955
    1W        W47494   5.422   9.013   1.144 -0.0822 -0.0006 -0.1269
    1W        W47495  28.202  29.777   7.286 -0.2075 -0.0740 -0.1416
    1W        W47496   9.888  16.044   1.858  0.0254  0.0387 -0.1837
    1W        W47497   2.480  18.555   6.495  0.3177  0.0739  0.2354
    1W        W47498  13.270  23.711   8.569  0.1058 -0.1550  0.0482
    1W        W47499   3.359   3.103   8.547 -0.1485  0.2278  0.0263
    1W        W47500  15.698  19.380   8.283 -0.2112 -0.0353  0.1525
    1W        W47501   1.694   5.819   0.526 -0.0525  0.1478 -0.0484
    1W        W47502   8.694  25.188   8.184  0.0046 -0.1844 -0.0536
    1W        W47503  13.589   9.643   7.496 -0.3480  0.0387  0.1536
    1W        W47504  11.882  18.772   0.496  0.1149 -0.0105  0.1002
    1W        W47505   6.691  26.635   1.749 -0.1017 -0.3373  0.2801
    1W        W47506  12.954  25.031   0.184  0.0899 -0.1075 -0.4596
    1W        W47507  10.646   5.550   1.300  0.0629  0.0480  0.0268
    1W        W47508  26.962  27.103   9.223 -0.3508 -0.1801 -0.1372
    1W        W47509  27.241   9.469   6.940  0.0424  0.0223 -0.0725
    1W        W47510   6.626   3.856   2.856  0.1071  0.1996  0.1105
    1W        W47511   8.214   2.212   1.782 -0.2099 -0.2116 -0.0132
    1W        W47512   5.316  29.268   0.218  0.1346 -0.0585 -0.3490
    1W        W47513  12.455  28.388   8.099  0.2471  0.0025  0.0354
    1W        W47514  13.070  24.031   1.757 -0.2208  0.0831  0.0987
    1W        W47515  13.045  13.788   2.296  0.1109  0.2196 -0.2859
    1W        W47516   0.445  26.150   8.642  0.1392 -0.2277  0.2495
    1W        W47517   1.786  26.414   1.061  0.0224 -0.0030 -0.2785
    1W        W47518  19.915  18.473   2.193 -0.4212 -0.2251 -0.1974
    1W        W47519   7.553  18.482   7.861 -0.2409 -0.1379  0.1377
    1W        W47520   6.682  14.730   6.092 -0.0233  0.0518 -0.0881
    1W        W47521  25.847  14.069   7.632 -0.1774  0.1926 -0.0140
    1W        W47522   6.255   3.901   0.737  0.1421 -0.0049 -0.1639
    1W        W47523  10.871  29.535   7.513 -0.2592 -0.1512  0.0271
    1W        W47524   9.797  21.924   8.728  0.0902 -0.0244 -0.2355
    1W        W47525  27.002  24.340   2.903 -0.0385 -0.0928 -0.0572
    1W        W47526  18.480  22.195   2.249  0.1748  0.0657 -0.2928
    1W        W47527  29.269  18.995   1.200 -0.0845 -0.1981 -0.0004
    1W        W47528  15.264   9.554   7.060  0.0711  0.0125  0.0209
    1W        W47529  14.051  27.471   2.840 -0.2331 -0.0878 -0.2729
    1W        W47530   2.628  11.631   1.904  0.1689 -0.4122 -0.1236
    1W        W47531   4.835   3.173   2.986 -0.3902  0.0658  0.0174
    1W        W47532   4.983   3.169   4.168  0.0162  0.2523 -0.2082
    1W        W47533  13.416  28.353   8.307  0.1487 -0.5352 -0.1375
    1W        W47534  14.623  21.278   9.253 -0.1863  0.1532  0.1661
    1W        W47535   8.019  11.612   7.595  0.0600 -0.2344 -0.2549
    1W        W47536  11.117  10.137   0.350 -0.0909  0.0644 -0.1862
    1W        W47537  28.049  24.994   1.470  0.0784 -0.0491  0.1521
    1W        W47538  13.825  26.104   8.705  0.1637 -0.2594  0.1277
    1W        W47539   5.362  26.080   6.867  0.2017 -0.2484  0.2282
    1W        W47540   8.916  12.678   8.618 -0.1085  0.1361 -0.4219
    1W        W47541  15.977   4.900   7.168 -0.3100  0.1711  0.0445
    1W        W47542   5.737  15.670   7.001  0.0926 -0.2291 -0.0278
    1W        W47543   7.877  25.220   6.936 -0.2778 -0.1533 -0.3413
    1W        W47544  18.680   9.128   8.625  0.1082 -0.0351 -0.0016
    1W        W47545  19.576   0.911   0.165  0.2037 -0.0251 -0.1067
    1W        W47546  11.000  24.497   6.274 -0.1634  0.0238 -0.3084
    1W        W47547  23.663   5.542   7.753 -0.0078 -0.1383  0.0846
    1W        W47548  14.318  16.505   8.688  0.0694 -0.0543 -0.3263
    1W        W47549   7.553   3.152   0.871  0.0907  0.1349  0.1866
    1W        W47550   6.462  22.189   9.413  0.0579  0.2785 -0.0712
    1W        W47551  25.434  21.054   0.416  0.2473  0.0528 -0.2649
    1W        W47552  21.948   9.651   1.997  0.0246 -0.0230 -0.0926
    1W        W47553  10.748  10.065   7.626  0.1790 -0.1549  0.1601
    1W        W47554  26.844   2.455   2.724 -0.0683  0.0891  0.0239
    1W        W47555   8.739   1.926   8.403  0.2180  0.3215 -0.0214
    1W        W47556   6.801  12.734   1.930  0.1016 -0.1051 -0.2230
    1W        W47557   8.108   4.579   7.291  0.1488  0.2724 -0.2658
    1W        W47558  26.690  10.204   0.447  0.1085 -0.2705  0.0361
    1W        W47559  21.021  23.167   0.637  0.3125 -0.0322  0.1860
    1W        W47560   9.360  20.993   7.094  0.4374 -0.3020 -0.0806
    1W        W47561   4.440  21.342   6.565  0.0611  0.0598  0.3001
    1W        W47562   3.377   0.441   9.103  0.4076 -0.0447 -0.0277
    1W        W47563  12.901   6.794   2.588  0.0208  0.1163  0.0904
    1W        W47564  27.352  20.787   7.011  0.1140 -0.4296 -0.1100
    1W        W47565   3.010   1.532   0.869  0.1133  0.2011  0.0829
    1W        W47566   1.132   1.198   8.363 -0.2469 -0.0261  0.0832
    1W        W47567  28.480  14.815   8.221 -0.0308  0.0517  0.2958
    1W        W47568   8.536   5.973   0.335  0.0947 -0.2004 -0.0471
    1W        W47569   0.182  23.042   5.459 -0.0595 -0.0001  0.0413
    1W        W47570  27.863  22.072   6.405 -0.0919  0.0432 -0.0318
    1W        W47571  29.487  25.467   5.688  0.1680 -0.0783  0.1183
    1W        W47572  17.974  27.283   8.087  0.1503 -0.1711  0.0606
    1W        W47573  11.923  20.700   6.166  0.0774 -0.1315  0.1466
    1W        W47574   2.363  16.756   6.831 -0.1592 -0.2417  0.0399
    1W        W47575   9.322  25.065   0.993 -0.1828 -0.0077  0.0103
    1W        W47576   1.348  17.387   6.302 -0.0907  0.2644  0.0277
    1W        W47577  28.198  21.898   8.492 -0.2247 -0.1251  0.0290
    1W        W47578   7.662   4.979   2.921  0.0680 -0.3735  0.2995
    1W        W47579   1.523   1.178   7.926  0.1768 -0.1766  0.0100
    1W        W47580  17.816   2.668   7.455  0.2756  0.0307  0.2529
    1W        W47581  13.189   3.715   0.717  0.4611  0.2292 -0.1418
    1W        W47582   6.406   5.965   2.101  0.2279  0.0068 -0.1937
    1W        W47583  25.046  18.078   0.959 -0.1841 -0.1559 -0.0009
    1W        W47584  26.879   9.155   7.110  0.3110 -0.0836 -0.1714
    1W        W47585  16.942  12.058   8.791 -0.0430 -0.0061  0.0334
    1W        W47586  25.468  10.931   1.950  0.0693  0.3650  0.2371
    1W        W47587   3.912   8.103   0.684 -0.2024 -0.0778  0.2153
    1W        W47588   0.633  13.725   6.531 -0.2604 -0.0420 -0.0469
    1W        W47589   1.552  11.915   7.704 -0.0287 -0.1274 -0.0507
    1W        W47590   6.150  11.778   8.702 -0.0365 -0.1582 -0.0200
    1W        W47591   9.361   5.507   2.248 -0.0236  0.1417  0.2431
    1W        W47592   6.317  25.702   6.124 -0.3198 -0.2108  0.1085
    1W        W47593   6.370  10.530   7.838 -0.1897 -0.0330  0.0388
    1W        W47594  18.710   9.570   0.279 -0.1396 -0.2733 -0.2633
    1W        W47595  15.459  19.635   0.790 -0.0646  0.0454 -0.2261
    1W        W47596  29.217  11.051   7.818 -0.0828  0.0579 -0.0639
    1W        W47597   2.059  21.822   1.804  0.1056  0.1200 -0.1102
    1W        W47598  14.057  10.716   7.772  0.1904  0.0081 -0.1077
    1W        W47599   9.046  19.381   8.395 -0.1759 -0.2250  0.0945
    1W        W47600  24.962   7.669   7.022  0.1852 -0.1829 -0.1733
    1W        W47601   2.288  17.224   8.710  0.0873  0.0760  0.0876
    1W        W47602   9.905   4.037   7.953  0.3034  0.0905  0.3753
    1W        W47603  19.099  16.218   0.114  0.1031 -0.2310  0.0369
    1W        W47604   9.984  20.871   0.981  0.1245  0.0628  0.3412
    1W        W47605   7.252  14.039   8.256  0.0956  0.0013  0.0863
    1W        W47606   5.655  15.300   1.115 -0.0977 -0.1765 -0.2486
    1W        W47607  22.199  28.285   1.093 -0.2479 -0.3613  0.0774
    1W        W47608  19.196  14.102   1.513  0.0509 -0.1913 -0.2168
    1W        W47609  25.055  28.160   1.446 -0.3752  0.0434 -0.0686
    1W        W47610  29.411  21.567   2.050 -0.2734 -0.0056 -0.0054
    1W        W47611  17.999  16.218   7.141 -0.0956  0.1030  0.0258
    1W        W47612  23.101  14.945   7.731 -0.0084 -0.0084  0.0239
    1W        W47613  15.777   0.776   7.238  0.0305  0.0685 -0.1519
    1W        W47614   9.724  28.986   1.778  0.1496 -0.2667 -0.0034
    1W        W47615   4.787  28.101   1.590 -0.2701  0.0619  0.1100
    1W        W47616  29.137  23.678   8.435  0.2354 -0.0969 -0.0409
    1W        W47617   3.765   1.220   0.036  0.2296  0.2114  0.1687
    1W        W47618   5.655  29.524   8.598 -0.0503 -0.1881  0.1097
    1W        W47619  13.994   4.139   0.359 -0.0087 -0.1711 -0.2458
    1W        W47620  12.430  21.034   6.920 -0.1357 -0.0869 -0.0867
    1W        W47621   5.956  13.286   1.827  0.0405  0.2851  0.0633
    1W        W47622  21.802   1.287   0.637 -0.1428  0.1162 -0.2481
    1W        W47623  27.675   2.397   8.530 -0.1077 -0.3111  0.1907
    1W        W47624  27.217   3.801   7.521  0.5198 -0.0827  0.1344
    1W        W47625   1.982  21.578   1.244  0.0184 -0.0186 -0.0849
    1W        W47626   1.740  22.749   0.706 -0.0825  0.2094  0.0896
    1W        W47627   0.642  25.685   9.167  0.2131  0.1285 -0.0599
    1W        W47628  29.600  25.676   0.918 -0.2357 -0.0761 -0.2583
    1W        W47629  12.484  18.244   2.112 -0.1119 -0.3204  0.1043
    1W        W47630  15.346  16.746   8.596  0.0397  0.3282 -0.0804
    1W        W47631   9.661  18.357   7.389  0.0829  0.0458 -0.1343
    1W        W47632   2.281   3.474   3.545  0.0679 -0.2553 -0.1512
    1W        W47633  27.595   9.500   7.812  0.1709 -0.2434  0.0697
    1W        W47634   6.194  10.452   1.846  0.1327  0.1449 -0.1162
    1W        W47635   0.071  28.599   6.827 -0.2443  0.0788  0.0658
    1W        W47636  14.027   4.165   6.839  0.1333  0.1799 -0.1361
    1W        W47637  26.312  29.519   2.480 -0.1396 -0.0177  0.0951
    1W        W47638  25.033   2.843   1.690 -0.0619 -0.0185  0.0542
    1W        W47639   6.377   6.243   2.524 -0.2434  0.1760 -0.0242
    1W        W47640  15.273  13.902   1.937  0.0179  0.3221 -0.1573
    1W        W47641  15.312  23.489   7.061  0.2102 -0.1391 -0.0069
    1W        W47642  21.666  21.934   6.844  0.0382 -0.0232 -0.0544
    1W        W47643  14.733  29.584   2.289  0.2117  0.1651  0.0365
    1W        W47644   7.007  23.395   1.131  0.0555 -0.3719 -0.2037
    1W        W47645   2.587   1.844   8.548 -0.1858 -0.0137  0.0095
    1W        W47646  14.826  23.563   0.235 -0.1489 -0.1421 -0.0647
    1W        W47647  13.694   8.982   2.405 -0.0618  0.1060 -0.3939
    1W        W47648  19.241   6.527   8.075 -0.0195 -0.3266 -0.0342
    1W        W47649   7.929  10.624   7.112  0.0280 -0.0086  0.0465
    1W        W47650  17.791  12.988   8.221  0.1963  0.0364  0.0772
    1W        W47651  27.779  15.922   0.784  0.0011  0.0117  0.1656
    1W        W47652  29.477  16.380   8.891 -0.1967 -0.1831 -0.0601
    1W        W47653  14.987   3.780   8.947  0.1736 -0.2676 -0.2352
    1W        W47654  10.947  22.420   2.576 -0.1745 -0.0403  0.0166
    1W        W47655   9.905   9.104   0.812  0.1431  0.1745 -0.0153
    1W        W47656  20.542  27.285   1.428  0.0585 -0.2603 -0.2141
    1W        W47657   4.174   9.502   2.590 -0.1168  0.1735  0.2545
    1W        W47658   5.916  13.751   6.612 -0.0915 -0.2010  0.2355
    1W        W47659  26.586   5.869   8.400 -0.1553  0.0339 -0.4019
    1W        W47660  27.465  15.403   7.481 -0.0151  0.0308  0.2890
    1W        W47661  28.012  24.882   0.811 -0.2101  0.0576  0.0834
    1W        W47662   2.677  15.711   1.729  0.2139  0.0935  0.1738
    1W        W47663  24.948  19.724   7.303 -0.1061 -0.1066  0.3371
    1W        W47664  23.407  15.272   8.338  0.1392  0.0646  0.0558
    1W        W47665   5.765  14.221   0.248 -0.0727 -0.1816 -0.2410
    1W        W47666   1.680  20.161   1.925  0.2531 -0.1445  0.1608
    1W        W47667  25.042  23.971   3.242  0.0247 -0.2634  0.2087
    1W        W47668  25.753   9.422   8.030 -0.1781  0.0890  0.0876
    1W        W47669   9.715  26.773   6.443 -0.1649  0.0287  0.0688
    1W        W47670  15.624   1.426   1.248 -0.4278 -0.2465 -0.0134
    1W        W47671  16.122   0.043   2.132 -0.2502  0.0143  0.0030
    1W        W47672   3.919  12.740   1.753 -0.1043  0.0277  0.3504
    1W        W47673  25.597  11.246   9.264 -0.0845 -0.0641  0.3043
    1W        W47674  19.596  22.638   7.838 -0.1532  0.0526 -0.1679
    1W        W47675  29.382  25.659   7.519  0.0686 -0.0324 -0.0169
    1W        W47676  10.816   8.521   7.758  0.3477 -0.0148  0.1051
    1W        W47677   3.154  23.005   6.714 -0.0015  0.0946  0.0577
    1W        W47678  20.187  23.921   1.604 -0.4078 -0.1189  0.1069
    1W        W47679   0.636   9.733   0.112  0.2444 -0.2617  0.0909
    1W        W47680  29.660  28.802   2.292  0.0860  0.3040 -0.1024
    1W        W47681   6.692  16.143   1.195  0.1735  0.1084 -0.0232
    1W        W47682  13.367  27.257   1.060 -0.0563  0.0921  0.0831
    1W        W47683   3.322   8.855   6.773  0.1959 -0.0977  0.0880
    1W        W47684  25.673  12.632   2.577  0.3616  0.0016  0.0081
    1W        W47685  22.155  13.890   0.307 -0.0157 -0.0273 -0.0774
    1W        W47686  11.250   0.491   2.352 -0.2182 -0.1315 -0.0957
    1W        W47687   7.246  15.242   7.287  0.0956 -0.1981 -0.1783
    1W        W47688  19.646  14.223   7.259 -0.1799 -0.0435  0.0654
    1W        W47689  14.740   3.847   9.414  0.0546 -0.1753 -0.0419
    1W        W47690  24.829  10.347   7.427  0.1631 -0.2040  0.0416
    1W        W47691  22.044  28.047   1.516 -0.1025  0.3010  0.3520
    1W        W47692   2.017  23.487   5.845  0.0972 -0.2950 -0.0846
    1W        W47693  15.751  14.036   8.815 -0.1005  0.1584  0.1584
    1W        W47694  11.599  17.641   8.221 -0.1933  0.0708  0.0195
    1W        W47695  21.345  26.698   1.359  0.0058 -0.2333  0.2359
    1W        W47696  21.959  18.592   8.052  0.0263 -0.1384  0.0970
    1W        W47697   7.292   5.145   8.191  0.1891 -0.1604  0.0064
    1W        W47698   8.396  10.841   2.834  0.3076  0.0707 -0.2858
    1W        W47699  12.042  20.689   7.204 -0.1731 -0.1884  0.0043
    1W        W47700   9.757  21.430   7.671  0.3960  0.1247 -0.2725
    1W        W47701   7.372  22.658   0.629 -0.2681 -0.0402  0.3897
    1W        W47702  14.414  25.458   2.486 -0.0151  0.2090  0.0832
    1W        W47703  25.561  22.926   8.465 -0.1352  0.1056  0.0035
    1W        W47704  15.301  24.445   8.434  0.3390 -0.1079 -0.0709
    1W        W47705  19.619   7.604   2.352  0.3036 -0.2760 -0.0308
    1W        W47706  26.544   7.516   2.067  0.3145  0.2053 -0.0651
    1W        W47707  29.757   6.667   6.765 -0.4780  0.1906 -0.2433
    1W        W47708   3.991  21.130   2.587  0.1624  0.2977 -0.0723
    1W        W47709  13.197  23.691   0.829  0.0173 -0.0697  0.2347
    1W        W47710   9.020   1.761   0.609  0.1401 -0.2090 -0.1593
    1W        W47711  28.331  23.983   7.947 -0.0306  0.0608  0.2520
    1W        W47712   6.588  26.776   9.376  0.3028  0.0421  0.2300
    1W        W47713   0.577   2.989   1.224  0.0390  0.1294  0.2474
    1W        W47714  19.661   8.323   7.045  0.3473  0.0816 -0.0475
    1W        W47715   0.048  22.678   6.998  0.2281 -0.0695  0.2612
    1W        W47716   1.597  25.096   0.996 -0.1596 -0.2447 -0.1891
    1W        W47717  26.527  18.863   1.505  0.1074 -0.1726 -0.2147
    1W        W47718  27.704   3.919   0.489 -0.1737  0.0645  0.0412
    1W        W47719  16.013  25.939   0.053  0.0261 -0.0781  0.1173
    1W        W47720  10.464  26.075   7.517 -0.0161  0.0201  0.1013
    1W        W47721   1.059  26.579   5.643 -0.1902  0.1909  0.2722
    1W        W47722  16.967   3.751   7.029  0.2187 -0.2110  0.0105
    1W        W47723  14.534  21.756   9.444 -0.0831 -0.4018 -0.1510
    1W        W47724   5.602   4.133   1.636 -0.0951 -0.1092 -0.1589
    1W        W47725  24.489   6.786   7.336  0.1153  0.1239  0.0352
    1W        W47726   9.878  17.550   8.410  0.1700 -0.0474  0.2094
    1W        W47727  29.243   2.963   0.535  0.1013 -0.0230 -0.0363
    1W        W47728   1.611  24.642   6.698 -0.2721  0.0191  0.1074
    1W        W47729  14.415  27.968   6.716  0.1018  0.1200  0.1546
    1W        W47730  20.552  12.493   0.448 -0.1150 -0.1990 -0.1971
    1W        W47731  12.329   2.375   1.545  0.1088  0.3747  0.4031
    1W        W47732  13.056  11.114   7.173 -0.0189  0.2294 -0.0563
    1W        W47733   1.812   3.684   8.611  0.4679 -0.1186 -0.0255
    1W        W47734   4.583   9.436   2.324  0.0618 -0.0773 -0.3031
    1W        W47735  18.713  27.551   1.260  0.0651  0.2482 -0.0871
    1W        W47736  10.828   4.851   6.510 -0.0215  0.3303 -0.0844
    1W        W47737  23.626  15.434   7.943 -0.2301  0.0138 -0.0415
    1W        W47738   5.187   6.001   0.803  0.1887  0.2139 -0.1833
    1W        W47739   9.666  15.830   0.355 -0.2282  0.0100  0.1062
    1W        W47740  28.503  11.873   8.662 -0.0451 -0.0245  0.1424
    1W        W47741   9.889   4.741   7.768  0.1668 -0.1096 -0.0411
    1W        W47742  27.800   6.242   7.312 -0.3640 -0.0581  0.2462
    1W        W47743   8.770  27.687   6.534 -0.1402 -0.1559  0.1890
    1W        W47744  12.757   1.983   7.410  0.1971 -0.0462  0.0272
    1W        W47745   6.577  29.372   0.014 -0.0983 -0.1690 -0.2599
    1W        W47746   1.419  28.014   2.090 -0.0722 -0.0764 -0.0180
    1W        W47747  24.692  18.110   2.622  0.0858  0.0626 -0.0652
    1W        W47748  28.646  17.260   8.288  0.0345  0.2377  0.1142
    1W        W47749  13.830  15.917   0.531  0.0195  0.0367  0.1345
    1W        W47750  26.704   2.820   9.247  0.2979  0.2529 -0.0992
    1W        W47751   7.770   3.700   7.111 -0.3503  0.0160 -0.0543
    1W        W47752   1.980   4.772   0.155  0.0504  0.2185  0.0303
    1W        W47753   6.493  26.949   2.105  0.0609 -0.1782 -0.1791
    1W        W47754  25.286  25.372   7.252 -0.0472 -0.1216 -0.1774
    1W        W47755   7.909  27.305   0.567  0.1656 -0.1177  0.1560
    1W        W47756  14.230  17.371   7.766  0.0725 -0.2981 -0.1274
    1W        W47757  24.913  16.822   6.826  0.1055  0.1032 -0.0645
    1W        W47758  18.353  22.115   8.112  0.4960  0.1225 -0.2696
    1W        W47759  26.712  11.480   2.316 -0.0154  0.1474 -0.1281
    1W        W47760   0.166  11.658   7.440  0.0453 -0.0229  0.1865
    1W        W47761  20.324   6.023   7.536  0.2252  0.1655 -0.3353
    1W        W47762   6.981  18.782   7.181  0.5026 -0.0174  0.1366
    1W        W47763  28.637   8.681   1.664  0.0170 -0.1347 -0.1471
    1W        W47764  29.029  25.042   1.654 -0.1472 -0.0149 -0.0099
    1W        W47765   0.990  26.966   8.339  0.3310 -0.0394  0.1148
    1W        W47766  23.915   2.910   0.987  0.0712 -0.0755  0.0468
    1W        W47767  28.014  24.224   6.928  0.1813 -0.1164 -0.1586
    1W        W47768   3.944  17.317   0.878 -0.1844 -0.2178 -0.0558
    1W        W47769   2.183  18.902   2.011  0.1148 -0.0069  0.0780
    1W        W47770   2.286  26.172   0.822 -0.0774 -0.2209 -0.1879
    1W        W47771  12.953  25.999   1.596  0.1699  0.0811  0.0210
    1W        W47772   7.658   8.177   0.645 -0.2208  0.1916 -0.1488
    1W        W47773   8.331   0.546   3.472 -0.3435  0.1627  0.1539
    1W        W47774  25.907  15.812   8.991  0.1199 -0.1599  0.4306
    1W        W47775  22.960   5.719   3.483 -0.0474 -0.1145  0.2023
    1W        W47776  13.219   2.749   9.069  0.0325 -0.0274  0.3912
    1W        W47777   1.469  26.661   6.690  0.1487 -0.1783  0.3938
    1W        W47778  11.144  29.182   1.736  0.0375 -0.2036 -0.1016
    1W        W47779   7.967  24.829   6.694  0.0523  0.1624  0.3722
    1W        W47780  22.536  15.378   6.572 -0.0850  0.2825  0.2182
    1W        W47781  23.547  21.210   0.350  0.0051  0.0971 -0.2033
    1W        W47782  12.993  26.046   2.969 -0.1045 -0.0293 -0.0132
    1W        W47783  23.262  26.214   8.808 -0.2301 -0.1883  0.0139
    1W        W47784  21.209   5.465   6.681  0.2697 -0.0953 -0.2543
    1W        W47785  13.956  17.572   1.757 -0.2658 -0.1317 -0.0889
    1W        W47786  16.106   4.798   6.709  0.2090  0.1241 -0.2189
    1W        W47787   5.463  28.278   2.700  0.0196  0.0962 -0.2065
    1W        W47788  10.894   2.048   9.444 -0.1018 -0.1045 -0.0087
    1W        W47789  22.369  24.251   3.398  0.2694 -0.3349  0.2007
    1W        W47790   3.515  12.434   1.449 -0.3371  0.1921  0.0365
    1W        W47791  29.796   9.750   1.177 -0.0374 -0.2188 -0.1428
    1W        W47792   7.356  16.932   6.622 -0.1763  0.0176 -0.0809
    1W        W47793  22.497  23.249   9.459 -0.0063  0.1783 -0.1263
    1W        W47794   2.742  20.969   7.085  0.0491  0.5206 -0.1470
    1W        W47795   0.607  17.761   1.110  0.0611 -0.0327 -0.0553
    1W        W47796   8.439  24.440   7.571 -0.1851  0.0236  0.1715
    1W        W47797   9.527   6.409   0.150  0.0416 -0.0482 -0.3991
    1W        W47798   2.515   1.254   7.291 -0.0766  0.0380 -0.0340
    1W        W47799   0.488  17.188   1.038 -0.0021 -0.1836  0.0993
    1W        W47800  27.777  27.731   0.118  0.1892  0.2831 -0.1938
    1W        W47801  29.784   5.560   2.137  0.0183 -0.1642  0.3351
    1W        W47802  27.939   0.006   2.574 -0.5654 -0.1275 -0.0114
    1W        W47803  11.586   2.826   2.911 -0.0451 -0.1537 -0.1486
    1W        W47804   0.210  15.818   9.163 -0.1780  0.0809 -0.1613
    1W        W47805   0.760  10.644   2.066 -0.1417  0.1781 -0.1345
    1W        W47806  16.337  10.897   0.715  0.0189 -0.0492  0.2619
    1W        W47807   5.702  27.786   8.899  0.1429 -0.1568  0.2449
    1W        W47808  18.788  15.245   0.929  0.1128 -0.1898 -0.3638
    1W        W47809  25.506   6.763   8.405  0.1330 -0.0046 -0.0135
    1W        W47810   8.325   4.101   0.483  0.2244  0.1590  0.1342
    1W        W47811   0.900  19.270   0.498  0.2218  0.1513  0.2719
    1W        W47812   7.674  19.586   7.520 -0.0819  0.1721 -0.1205
    1W        W47813   1.150  13.044   1.857  0.2468  0.3813 -0.2710
    1W        W47814   7.126  23.659   6.778 -0.0349 -0.0328  0.1370
    1W        W47815  12.150  27.239   0.232  0.1925  0.1406 -0.0883
    1W        W47816  29.465  11.788   2.952  0.1848  0.2586 -0.1590
    1W        W47817  19.390  29.447   7.229 -0.3608  0.3165 -0.0065
    1W        W47818   3.134  11.873   9.405 -0.0914 -0.2184  0.2106
    1W        W47819  16.190  18.980   2.139 -0.2981  0.0215  0.0465
    1W        W47820   1.297   2.122   6.997  0.0166 -0.1117 -0.1067
    1W        W47821  12.135  29.785   1.808 -0.0447  0.0097  0.0474
    1W        W47822  25.654   5.974   7.305  0.1734 -0.0750 -0.0934
    1W        W47823  18.174  11.110   7.674  0.0600  0.2600  0.0186
    1W        W47824   7.223  26.177   8.542 -0.1296  0.2701  0.0524
    1W        W47825  10.000   1.676   1.781  0.0753 -0.5059 -0.0819
    1W        W47826  12.324  12.931   9.192 -0.1186 -0.2676  0.2439
    1W        W47827   6.472  14.712   0.822 -0.4109  0.2679 -0.0527
    1W        W47828  21.814  22.175   1.014  0.1761 -0.2450  0.1551
    1W        W47829  27.827   1.779   0.723 -0.2051  0.0391  0.1034
    1W        W47830  27.606   3.824   3.117  0.1299  0.2188 -0.0785
    1W        W47831   8.644   4.326   8.908 -0.1779  0.1696 -0.2982
    1W        W47832   0.749   8.621   1.473  0.1385  0.0482  0.1505
    1W        W47833  16.491  26.975   7.605 -0.0743 -0.0725  0.1764
    1W        W47834  27.035  29.652   9.378  0.0749  0.4538  0.1734
    1W        W47835  27.239  24.212   9.009 -0.2352 -0.1344 -0.0374
    1W        W47836  19.577  21.392   9.402 -0.3031  0.0802 -0.0563
    1W        W47837  12.869  28.501   7.197  0.0039  0.3274 -0.0439
    1W        W47838  24.782  18.850   7.430  0.1073  0.2169  0.0335
    1W        W47839  24.908   4.845   8.816 -0.1069 -0.1758  0.2176
    1W        W47840  16.180  26.524   8.270 -0.2965 -0.0998 -0.1177
    1W        W47841   0.769   3.566   2.258 -0.0202  0.0964 -0.0644
    1W        W47842   7.925  18.063   0.708  0.1618 -0.2548  0.1105
    1W        W47843   9.193  21.176   8.197  0.1348  0.1913  0.1243
    1W        W47844  20.244   0.017   1.409 -0.1819 -0.3059 -0.4106
    1W        W47845  24.537  26.304   3.307 -0.1300  0.1252  0.2672
    1W        W47846   0.053  29.756   1.521  0.0416 -0.1685  0.0883
    1W        W47847  10.902  15.137   6.372  0.2401 -0.0060 -0.1578
    1W        W47848  20.133  16.087   7.988  0.4551  0.0379 -0.0100
    1W        W47849  29.669   6.811   0.905  0.1049  0.0247 -0.1170
    1W        W47850   1.580  24.418   2.331  0.1884  0.2173  0.0701
    1W        W47851  11.614  19.358   1.342  0.3155  0.3595  0.1869
    1W        W47852  17.074   8.978   0.743  0.1259  0.0373  0.1040
    1W        W47853  28.828  21.429   8.858 -0.0293  0.1263  0.0492
    1W        W47854  25.700  14.118   1.447 -0.0991  0.3194 -0.2347
    1W        W47855  11.608  21.685   0.086 -0.0567  0.0960  0.1760
    1W        W47856   7.733  15.778   1.612 -0.0295 -0.1317 -0.0833
    1W        W47857  18.113   7.983   0.458  0.0869 -0.0034 -0.3847
    1W        W47858   2.238  11.913   2.089 -0.0957 -0.2118  0.1256
    1W        W47859   4.165  12.852   0.931  0.0410 -0.0959 -0.1008
    1W        W47860  17.350   9.216   7.486  0.0779 -0.0269  0.1755
    1W        W47861   1.035  12.273   9.349  0.0863  0.0982  0.3258
    1W        W47862  11.074   6.592   0.416 -0.0809  0.0917 -0.1128
    1W        W47863   8.446  23.961   1.218 -0.1698 -0.1221  0.1662
    1W        W47864   8.267  27.963   2.215  0.2665 -0.0354 -0.0605
    1W        W47865  19.147  13.514   9.171  0.0037 -0.1645  0.1650
    1W        W47866   9.036   3.143   9.087  0.1783 -0.0674  0.0123
    1W        W47867  19.451  22.725   1.161 -0.1204  0.0139 -0.1319
    1W        W47868  26.885  23.869   8.816  0.0905 -0.0727 -0.3600
    1W        W47869  14.185  27.439   1.553  0.2726  0.0583 -0.3305
    1W        W47870  14.625  23.999   6.520 -0.1874 -0.0534 -0.1454
    1W        W47871   2.807   4.776   8.513  0.2333 -0.3153 -0.1554
    1W        W47872   9.776  24.726   1.779 -0.4285  0.1142  0.1212
    1W        W47873   1.841   9.362   3.333  0.0371  0.3887  0.1897
    1W        W47874  16.340   1.896   0.306 -0.0734  0.1260  0.4348
    1W        W47875  14.525  21.333   0.330  0.0893  0.0410 -0.0788
    1W        W47876   2.754  23.076   7.142  0.0144  0.1820  0.1612
    1W        W47877   5.710  22.168   6.427  0.0541  0.1033  0.1461
    1W        W47878  16.351   7.959   7.509  0.0603  0.0649 -0.0678
    1W        W47879   3.109   9.608   1.320 -0.3799 -0.2159  0.0483
    1W        W47880  12.843   7.781   8.021 -0.0774  0.0938 -0.1100
    1W        W47881   7.413   3.905   6.718 -0.1034 -0.1091  0.0511
    1W        W47882  24.267  25.231   1.267  0.1189 -0.0878  0.1960
    1W        W47883  14.680  13.362   7.134  0.1859 -0.0332  0.0922
    1W        W47884  18.109  13.743   2.345 -0.0643  0.0764 -0.0868
    1W        W47885  10.520  17.590   7.428  0.0973 -0.1768  0.0957
    1W        W47886  17.181  18.597   8.435 -0.1685 -0.4178  0.0419
    1W        W47887  20.605  18.900   7.161 -0.0535  0.0845  0.0270
    1W        W47888   1.568  13.641   9.207  0.1337 -0.0331 -0.0051
    1W        W47889  28.149  20.186   1.704 -0.3681 -0.1975 -0.1464
    1W        W47890  18.072   0.129   7.389 -0.1263 -0.2792 -0.1723
    1W        W47891  19.654  13.732   0.857 -0.0543  0.2768 -0.0736
    1W        W47892  27.459  20.388   0.622 -0.0923  0.1118  0.1727
    1W        W47893  11.765  22.407   8.546  0.2829 -0.4143 -0.1049
    1W        W47894  11.893  23.523   1.319 -0.2642  0.0974 -0.0176
    1W        W47895  21.468  28.008   2.239 -0.0075  0.0386 -0.2557
    1W        W47896   3.938  11.833   2.089  0.0335 -0.0398 -0.1657
    1W        W47897  19.247   3.221   1.714  0.0672  0.4988 -0.2793
    1W        W47898  13.185   7.178   8.631 -0.2040 -0.1132 -0.2935
    1W        W47899   6.103   6.936   7.855 -0.0539 -0.1127 -0.1019
    1W        W47900   1.528   6.791   8.797 -0.3707  0.4168 -0.1622
    1W        W47901   5.734   2.809   0.931 -0.0723  0.0131 -0.4708
    1W        W47902  19.126  22.374   7.380 -0.0747 -0.1825  0.3407
    1W        W47903   6.149   3.875   3.112  0.1113  0.0003 -0.0689
    1W        W47904  25.070  27.983   6.437 -0.0116  0.0441  0.1201
    1W        W47905  10.491  15.536   8.629  0.1286 -0.4407  0.0393
    1W        W47906   7.776  22.670   6.327  0.0670 -0.0485 -0.0843
    1W        W47907  14.443   1.084   2.427  0.0917 -0.4104  0.0450
    1W        W47908   0.901   6.212   1.545  0.2055  0.1121 -0.0845
    1W        W47909  16.688  25.081   1.453 -0.0739  0.1285  0.1752
    1W        W47910   8.905  21.130   7.208  0.1164 -0.4613 -0.0154
    1W        W47911  14.508  27.784   2.813 -0.0713  0.1388  0.1665
    1W        W47912   7.956  17.302   8.394 -0.1653  0.2066 -0.1098
    1W        W47913  28.750  14.517   7.232  0.1371 -0.2747 -0.0677
    1W        W47914  23.890  12.093   1.387  0.1397 -0.1280  0.2823
    1W        W47915  22.372  23.567   0.847 -0.2061 -0.0495 -0.0397
    1W        W47916  18.428  10.535   8.937  0.0216 -0.2055 -0.2164
    1W        W47917  21.905  19.360   7.325 -0.2414  0.1554 -0.3998
    1W        W47918  10.593  11.425   7.852 -0.2266 -0.1767  0.2383
    1W        W47919   0.873  29.279   0.263  0.0075 -0.1584 -0.0362
    1W        W47920  21.087  23.648   0.457  0.3783 -0.1745 -0.0667
    1W        W47921   7.964  24.352   7.787 -0.2073  0.3799 -0.0035
    1W        W47922  14.259   3.162   2.946  0.0727 -0.2581  0.1882
    1W        W47923  15.886  16.347   0.000 -0.2207  0.1755  0.1274
    1W        W47924   6.343  15.572   8.204  0.2275  0.1293 -0.1221
    1W        W47925  16.460  25.632   8.092  0.1549  0.0401 -0.0013
    1W        W47926  17.551  23.544   9.232 -0.2707 -0.1223 -0.0501
    1W        W47927  11.601  15.360   1.325  0.1871  0.0467  0.0771
    1W        W47928   9.380  12.945   8.483 -0.1334  0.0445  0.0044
    1W        W47929  13.714   6.656   0.427  0.3228  0.2807  0.1474
    1W        W47930   9.262   2.903   0.633 -0.1549  0.1102  0.0462
    1W        W47931  14.683  29.222   7.530  0.2859  0.1165 -0.3736
    1W        W47932  10.263  10.424   1.684  0.0933 -0.0957 -0.0965
    1W        W47933  19.209   0.768   0.494  0.1998  0.1627  0.2571
    1W        W47934  26.357   3.335   7.783 -0.1015  0.2314 -0.2816
    1W        W47935   9.729  28.957   8.640 -0.1121 -0.0016  0.1484
    1W        W47936   8.149   8.280   8.457 -0.1239  0.1679  0.0429
    1W        W47937   4.411   5.989   9.014  0.0227  0.0204  0.0890
    1W        W47938   4.699   0.757   8.122 -0.3900 -0.3547  0.0850
    1W        W47939  29.310  29.638   1.200  0.2624 -0.0080 -0.2340
    1W        W47940  19.205  11.660   0.754 -0.3089 -0.0973  0.0597
    1W        W47941  25.469   0.151   1.138  0.1492  0.0645  0.0565
    1W        W47942  29.469  12.979   8.944 -0.1312 -0.1232 -0.3248
    1W        W47943  28.530  21.856   0.720  0.1407  0.1659  0.0461
    1W        W47944   8.874   3.191   0.524  0.1294  0.3872  0.1888
    1W        W47945  13.823  27.463   1.186  0.2006  0.0333 -0.0464
    1W        W47946  17.953  23.288   7.937  0.2609  0.0267  0.0741
    1W        W47947  20.934  15.489   1.306  0.0069  0.1913 -0.2356
    1W        W47948  23.283  24.450   9.181 -0.3214 -0.2380  0.0538
    1W        W47949  20.467   9.658   8.323 -0.0022  0.0013 -0.0034
    1W        W47950   2.500  21.825   7.889  0.0546  0.2047 -0.1855
    1W        W47951   0.886  25.649   1.842 -0.1490 -0.4385 -0.4473
    1W        W47952  15.995  21.890   8.453  0.0533  0.0204  0.2378
    1W        W47953  18.168  10.109   9.230 -0.3001 -0.0537 -0.0408
    1W        W47954   2.881   7.447   7.493  0.0160  0.0854  0.3347
    1W        W47955  12.527  24.253   6.656 -0.1507  0.0950 -0.1517
    1W        W47956  26.943  28.369   2.204 -0.0195  0.0126  0.0589
    1W        W47957  19.363   6.231   7.254  0.0250 -0.0305  0.0189
    1W        W47958  22.829   1.204   6.816 -0.1621  0.2597 -0.0192
    1W        W47959   1.437  26.220   7.595 -0.0399 -0.0317  0.1019
    1W        W47960  10.515  12.136   2.293 -0.0421 -0.1826 -0.0508
    1W        W47961  26.231  14.599   2.489 -0.0256 -0.4526 -0.2394
    1W        W47962  16.126  21.400   8.441 -0.0581 -0.0674  0.0543
    1W        W47963  12.413   8.554   2.684 -0.0339  0.0002 -0.0787
    1W        W47964   8.145  28.605   0.172 -0.1021  0.1983  0.0098
    1W        W47965  22.300  19.047   7.393 -0.2198 -0.1494  0.1701
    1W        W47966   2.673  23.909   8.021 -0.1062 -0.2742 -0.0484
    1W        W47967  18.176  20.844   2.083  0.1408  0.0825  0.0113
    1W        W47968  14.439  14.766   9.146  0.1185 -0.1396 -0.3142
    1W        W47969   3.458  19.989   1.789  0.3768 -0.0464 -0.2878
    1W        W47970  22.631  29.259   1.166  0.1352  0.1680  0.2922
    1W        W47971   0.218  24.938   9.420  0.2598 -0.1682  0.1550
    1W        W47972  28.382  21.336   8.619  0.2074  0.2304 -0.4518
    1W        W47973   8.373   4.717   2.798 -0.0076  0.0128  0.0398
    1W        W47974  16.997  29.704   0.886  0.0681 -0.0041 -0.0297
    1W        W47975   5.280  11.037   1.060 -0.0654 -0.0964 -0.0061
    1W        W47976   3.392  13.140   0.620  0.0913  0.0078  0.0898
    1W        W47977   1.562  10.792   2.364 -0.0250  0.1404 -0.0231
    1W        W47978  29.262  29.382   2.988  0.1544  0.1231  0.0452
    1W        W47979  11.271   0.338   8.230  0.0510  0.1124  0.2316
    1W        W47980  29.569  26.321   1.820 -0.1560  0.1084 -0.1212
    1W        W47981   6.114   0.924   8.436  0.0528 -0.1673 -0.4516
    1W        W47982   2.163  13.257   1.426  0.0008  0.0861  0.1560
    1W        W47983  12.056  20.686   0.211  0.1211 -0.1553 -0.3078
    1W        W47984   1.191  18.567   0.039  0.2972 -0.3858 -0.0725
    1W        W47985  26.968   0.243   7.433  0.1463  0.2886 -0.2884
    1W        W47986  16.738  29.194   0.190 -0.0618 -0.0021  0.1907
    1W        W47987   5.683   8.511   3.159 -0.2808 -0.2372 -0.0431
    1W        W47988  28.074   2.383   8.172  0.0332 -0.1947 -0.0260
    1W        W47989   4.303  27.117   9.136  0.0445 -0.1764  0.4083
    1W        W47990  21.653   4.185   0.308 -0.1549 -0.4631  0.2054
    1W        W47991  16.498   6.011   0.212  0.0499 -0.0362 -0.0927
    1W        W47992   0.222   3.985   7.800  0.0149  0.3188 -0.3260
    1W        W47993  25.699  11.072   6.848  0.0456 -0.2493 -0.2518
    1W        W47994  17.772  18.413   9.135 -0.1557  0.1364 -0.3714
    1W        W47995   3.843  11.185   6.476 -0.0454 -0.2410 -0.1164
    1W        W47996   1.619  17.260   1.714 -0.1472  0.1465 -0.1087
    1W        W47997  16.751  13.844   0.332  0.0777 -0.5931  0.2051
    1W        W47998   9.550  24.625   0.551 -0.0850 -0.0376 -0.2375
    1W        W47999  17.402  21.634   8.053  0.1327  0.1293  0.2321
    1W        W48000   2.740  18.445   2.579 -0.0080  0.0690  0.0850
    1W        W48001  20.749   3.252   1.420  0.1812  0.1604 -0.2092
    1W        W48002   7.023  19.053   8.818 -0.1484 -0.0989  0.1299
    1W        W48003  24.315   1.564   1.193  0.2559 -0.1862  0.1436
    1W        W48004  24.192   6.169   8.920  0.3581 -0.1777 -0.0813
    1W        W48005  23.762  22.739   8.596  0.0468  0.0178  0.0824
    1W        W48006  21.581  12.593   1.498 -0.2051  0.1393  0.3947
    1W        W48007  12.641  15.866   1.930 -0.1437 -0.1952 -0.1900
    1W        W48008   4.635  27.666   8.311 -0.0568 -0.2317  0.1751
    1W        W48009   7.350   7.373   8.979 -0.0911 -0.5069 -0.1474
    1W        W48010   8.393  28.430   9.134  0.1589  0.2539  0.0716
    1W        W48011   1.266  25.215   7.454  0.2211 -0.1359 -0.0837
    1W        W48012   5.690  14.657   2.833 -0.4176  0.0677  0.0220
    1W        W48013  26.637  27.683   5.958 -0.1028  0.0645  0.0537
    1W        W48014  11.319  24.751   9.006 -0.3289 -0.1331  0.2687
    1W        W48015  15.507   5.067   7.283  0.1027 -0.1154 -0.2386
    1W        W48016  23.220  21.919   0.705  0.0702 -0.1679 -0.1464
    1W        W48017   6.413  19.482   1.038  0.2222 -0.0227  0.0259
    1W        W48018  13.621  28.461   7.842  0.0606  0.0059  0.1454
    1W        W48019   2.561  24.106   8.898  0.4284 -0.0253 -0.0558
    1W        W48020  27.612  16.837   8.782 -0.0074 -0.0643  0.0716
    1W        W48021   5.240   0.858   8.374  0.1300 -0.0859  0.1756
    1W        W48022  15.603  25.101   0.562 -0.3579  0.5490 -0.2417
    1W        W48023  27.443  13.422   5.423  0.3097  0.0522  0.1322
    1W        W48024  24.756   3.078   0.379  0.2754  0.1747  0.1683
    1W        W48025   6.212  19.039   8.391  0.0749 -0.2141 -0.1082
    1W        W48026   8.354  21.974   0.693  0.2005  0.0355 -0.2528
    1W        W48027   5.136   7.304   2.047 -0.0530  0.0601  0.0748
    1W        W48028  27.955   7.177   6.977  0.2405 -0.0051  0.3871
    1W        W48029  28.721  22.267   0.495 -0.4458  0.1450 -0.1464
    1W        W48030  24.426  10.766   6.806  0.2692  0.0612  0.0959
    1W        W48031   2.545   8.870   8.157  0.0337 -0.1225  0.1383
    1W        W48032  22.250   8.639   1.738  0.1753 -0.0471 -0.0136
    1W        W48033  14.588  18.172   2.302 -0.1100  0.2213  0.0782
    1W        W48034  19.032  15.573   8.333  0.1725  0.0120  0.1672
    1W        W48035  21.131  22.748   2.630 -0.3502  0.2026 -0.1423
    1W        W48036  16.556  13.430   0.139 -0.0340  0.0717 -0.1008
    1W        W48037  24.657  20.770   1.440  0.1552 -0.0749 -0.0529
    1W        W48038  14.143   0.601   9.077 -0.0888 -0.1028 -0.1126
    1W        W48039  10.391  27.731   8.141  0.2400  0.0645  0.1341
    1W        W48040  10.555   9.078   0.676 -0.2078  0.0785 -0.1363
    1W        W48041  26.607  29.760   0.688  0.0264  0.0268  0.0723
    1W        W48042  13.961  10.731   0.112 -0.0579 -0.2556 -0.0941
    1W        W48043   7.286  16.781   0.893 -0.0507  0.0893  0.0714
    1W        W48044   5.260  14.325   8.558  0.1291  0.1205 -0.1913
    1W        W48045   6.892   5.425   0.218 -0.1389  0.0997 -0.2517
    1W        W48046   8.149   6.498   8.972  0.2764 -0.1964 -0.0300
    1W        W48047  19.324   3.214   2.469 -0.1744 -0.1039 -0.2712
    1W        W48048  15.579  21.629   8.335  0.1711 -0.1646  0.1282
    1W        W48049  21.599  18.523   0.212 -0.0973  0.0375  0.0012
    1W        W48050   0.245  13.195   0.418  0.0088 -0.3044 -0.2205
    1W        W48051  23.641   6.060   1.940 -0.2340 -0.0978 -0.0288
    1W        W48052  17.507   0.628   3.345  0.0418 -0.0871  0.0674
    1W        W48053   6.725  28.331   0.542 -0.0690 -0.0341 -0.3005
    1W        W48054   5.132  17.416   1.023 -0.1878 -0.0162  0.1295
    1W        W48055  26.227   8.481   1.743 -0.0068 -0.3984  0.1313
    1W        W48056  24.050   6.899   8.472  0.0921  0.2780  0.4484
    1W        W48057  17.320   6.363   8.892  0.0207  0.2261 -0.4027
    1W        W48058   7.257   8.218   1.911 -0.1968 -0.0752 -0.1962
    1W        W48059  24.135  15.438   8.746  0.0446 -0.0386  0.2463
    1W        W48060  16.517  23.226   9.142  0.1953 -0.0400  0.0198
    1W        W48061  26.196  18.060   8.759  0.1013 -0.0168  0.0547
    1W        W48062   2.580  29.796   2.852 -0.1437 -0.0046 -0.1338
    1W        W48063  25.217  15.423   1.199 -0.1045  0.1547 -0.2078
    1W        W48064  20.239   8.238   0.726 -0.0849  0.0500  0.4687
    1W        W48065   8.162   4.250   1.705 -0.1620 -0.0678 -0.1201
    1W        W48066  25.926  26.083   6.354 -0.0930  0.1252 -0.0753
    1W        W48067  16.360   3.588   7.193  0.0351  0.0755  0.1104
    1W        W48068   7.728   2.221   1.682 -0.0680 -0.0340  0.1484
    1W        W48069  16.696   3.948   8.303  0.1962 -0.2628  0.1166
    1W        W48070  24.995  29.822   2.468 -0.0963 -0.2325 -0.1657
    1W        W48071  19.166   1.301   7.885  0.0161  0.1003  0.0751
    1W        W48072  15.829  26.285   8.550 -0.0880  0.1201  0.1918
    1W        W48073  18.386   0.532   0.690  0.3351  0.3130  0.2255
    1W        W48074   8.140  24.966   0.677 -0.1127  0.2397  0.0012
    1W        W48075  17.327  17.503   2.532  0.0889 -0.0215  0.0644
    1W        W48076   3.248  15.951   7.453  0.0300 -0.3398  0.0458
    1W        W48077  29.213  27.598   2.221 -0.2316  0.0081 -0.2521
    1W        W48078  12.388  23.316   6.628 -0.0165 -0.1260 -0.2283
    1W        W48079   3.449  11.629   8.236  0.0813  0.2058 -0.2163
    1W        W48080   0.481  28.671   7.277  0.1941  0.0371 -0.1443
    1W        W48081  10.453  26.600   6.189  0.0714 -0.0798 -0.1134
    1W        W48082  20.794  11.032   6.325 -0.0752  0.0792  0.0050
    1W        W48083  11.620  15.663   2.382 -0.1311  0.0803 -0.1424
    1W        W48084  14.172   9.908   0.409  0.0354 -0.0157  0.1683
    1W        W48085   9.598   4.412   8.596  0.0611  0.1744  0.1545
    1W        W48086   7.115  29.478   2.422 -0.0612  0.0980  0.1006
    1W        W48087  23.894  20.214   2.814 -0.2026 -0.1825 -0.1583
    1W        W48088   4.661   1.485   3.760  0.0211  0.0291  0.2184
    1W        W48089   8.106   7.945   2.224 -0.0149  0.1237  0.0079
    1W        W48090   0.865  13.291   7.203  0.2558 -0.0076  0.1366
    1W        W48091  11.601  10.358   7.273 -0.0012  0.1832  0.0328
    1W        W48092  15.250  14.870   7.521  0.2002  0.4343 -0.3626
    1W        W48093  26.215   7.202   2.273  0.2843 -0.1781 -0.0097
    1W        W48094  15.237   4.161   8.649  0.1003  0.0107 -0.1083
    1W        W48095  18.673  29.079   1.568  0.0288 -0.0122 -0.0029
    1W        W48096  24.661   7.376   7.250 -0.3739  0.5254 -0.2976
    1W        W48097  25.787   4.259   8.070 -0.0333 -0.4032 -0.0194
    1W        W48098  26.528   0.032   2.130  0.0174 -0.1055 -0.0113
    1W        W48099   2.191  29.689   1.903 -0.2560 -0.0078 -0.1668
    1W        W48100  16.897  14.993   8.306 -0.0311  0.2600 -0.1573
    1W        W48101  23.185   5.755   2.633 -0.1220  0.2349 -0.2401
    1W        W48102   4.007  24.387   0.367  0.1743 -0.0788 -0.1688
    1W        W48103  12.051  16.511   7.160  0.0236 -0.0751 -0.0730
    1W        W48104  24.009  17.020   7.121  0.1325  0.0742  0.0155
    1W        W48105  22.673   0.187   8.415 -0.1009  0.3398 -0.0670
    1W        W48106  29.457  15.114   8.796  0.2896  0.0809 -0.1975
    1W        W48107   7.058  27.189   1.790  0.0763  0.0662  0.1861
    1W        W48108  27.887   9.136   0.068  0.2173 -0.2204  0.0407
    1W        W48109  24.628  27.732   0.638 -0.3478  0.3871  0.2436
    1W        W48110  17.554   6.422   6.120  0.1434 -0.3656  0.1650
    1W        W48111  17.806   3.307   6.140  0.1462 -0.1745 -0.1359
    1W        W48112  22.759   4.118   1.250  0.2079 -0.4472  0.3897
    1W        W48113  19.290  29.099   0.646  0.0740  0.0227  0.0536
    1W        W48114   3.662  14.565   2.642  0.0967  0.0861  0.1416
    1W        W48115   6.744  15.840   8.869  0.0024  0.3013 -0.1723
    1W        W48116   9.154   7.280   0.312 -0.2002 -0.0121  0.0359
    1W        W48117   3.227   3.179   7.941 -0.2798  0.1968  0.1307
    1W        W48118  15.231  24.628   2.797 -0.2540 -0.0970 -0.1925
    1W        W48119  23.987  26.562   8.128  0.1334 -0.1065 -0.1001
    1W        W48120   4.320   5.631   3.501 -0.1038  0.1328  0.0301
    1W        W48121  23.817   2.161   0.079  0.1358 -0.3264 -0.2462
    1W        W48122  16.798   0.658   2.770  0.1701  0.0795  0.3847
    1W        W48123   6.409  22.971   6.646  0.3484 -0.0268  0.0761
    1W        W48124  19.629   2.454   9.332  0.1760  0.1803  0.1369
    1W        W48125  14.734  28.710   8.263  0.0943  0.1042 -0.1346
    1W        W48126   2.494  20.381   1.043 -0.1770  0.4154  0.0919
    1W        W48127   4.634   3.615   8.893  0.2444 -0.0956  0.3168
    1W        W48128  26.758  28.028   7.546 -0.0168  0.0279  0.0758
    1W        W48129  14.604  25.418   0.827  0.1087  0.0931 -0.5654
    1W        W48130  24.802  29.665   2.887  0.2795  0.0592 -0.1292
    1W        W48131   3.162  16.485   6.541 -0.2305 -0.2587  0.0268
    1W        W48132  22.129  19.746   1.060  0.0310  0.1495  0.1386
    1W        W48133  20.316   9.421   7.548 -0.1325 -0.1531  0.1245
    1W        W48134  18.975  14.925   8.902  0.1097 -0.0538 -0.0936
    1W        W48135  21.776   5.053   7.802 -0.0945 -0.1217 -0.0279
    1W        W48136  25.437   9.113   7.171  0.5326 -0.2620  0.0916
    1W        W48137  16.376  20.024   2.119 -0.0191  0.0375  0.0911
    1W        W48138  10.905   7.407   2.420 -0.2725  0.2086 -0.0403
    1W        W48139   3.292   6.071   7.914  0.0517  0.1457 -0.2242
    1W        W48140  16.069  28.214   8.876 -0.0258  0.2113  0.2653
    1W        W48141  27.672  23.886   9.230 -0.1587  0.0104  0.0801
    1W        W48142  16.289  27.995   0.914  0.1042  0.0043  0.2882
    1W        W48143  15.708   3.794   8.022 -0.3097 -0.0700  0.1328
    1W        W48144  25.641   3.785   3.320  0.0341 -0.2439 -0.1513
    1W        W48145   5.845  28.514   2.984  0.1107  0.2106 -0.1046
    1W        W48146   8.585  26.443   0.136  0.0254  0.0681 -0.0912
    1W        W48147   7.948  12.569   0.643 -0.2487  0.1959 -0.3804
    1W        W48148  22.804  17.409   9.227  0.0580  0.0263  0.2332
    1W        W48149   9.589   6.939   2.113 -0.2726  0.4041 -0.1206
    1W        W48150  13.586  24.372   1.854  0.0292  0.2832  0.0273
    1W        W48151  23.889  23.767   7.397  0.1670  0.0156  0.0787
    1W        W48152  19.479  27.553   1.483  0.1898  0.2559  0.2163
    1W        W48153  12.364  21.915   8.392 -0.0079 -0.0852  0.1998
    1W        W48154  20.007   9.548   1.137 -0.1529  0.0267  0.0194
    1W        W48155  11.714   2.067   8.945 -0.0723  0.1162  0.0172
    1W        W48156  11.240  15.282   9.384 -0.1009  0.2554 -0.4547
    1W        W48157  29.159   5.742   2.457 -0.3776 -0.4323  0.0724
    1W        W48158  15.534  27.983   8.953 -0.0270 -0.0891 -0.1019
    1W        W48159  22.533  29.614   2.092 -0.0507 -0.0949  0.0867
    1W        W48160   1.520   8.595   6.356  0.0958  0.2181 -0.0305
    1W        W48161   3.572  20.443   7.331  0.0173 -0.1649 -0.3388
    1W        W48162  19.304  12.353   9.350  0.3548  0.0652 -0.2715
    1W        W48163  13.462  17.996   0.904  0.1112  0.1845 -0.0812
    1W        W48164   9.114  25.269   8.502 -0.2120 -0.0314 -0.1507
    1W        W48165  28.110   9.768   1.952  0.1274  0.1352 -0.0886
    1W        W48166  26.329  20.510   8.897 -0.0053 -0.2003  0.0568
    1W        W48167  21.736   9.620   6.335 -0.1261  0.0306  0.2122
    1W        W48168  11.488  22.709   5.976  0.1253 -0.0615  0.1418
    1W        W48169   2.218  16.837   6.353  0.2476  0.0821  0.0981
    1W        W48170  11.103  18.849   2.162  0.1183  0.1952 -0.3821
    1W        W48171  17.874   3.558   6.586 -0.0205  0.3926 -0.1447
    1W        W48172  12.592  13.571   2.441  0.1428 -0.0914  0.0607
    1W        W48173  10.350  26.496   7.282  0.2993  0.0524  0.0865
    1W        W48174  19.988  19.241   1.248 -0.1686 -0.1819 -0.0859
    1W        W48175  18.918  29.572   2.692 -0.2301 -0.1380 -0.2357
    1W        W48176  15.342  20.166   7.934 -0.0370  0.2740 -0.1852
    1W        W48177  29.761  25.443   2.631  0.4085 -0.0200 -0.0291
    1W        W48178  16.294  12.312   7.601  0.2831  0.0976  0.0418
    1W        W48179  20.476  21.171   7.567 -0.2227  0.2357 -0.0913
    1W        W48180   0.021  15.695   8.220 -0.0592 -0.1041  0.0302
    1W        W48181  11.241   4.466   7.729 -0.2139  0.1943 -0.1597
    1W        W48182  14.378  27.800   2.290 -0.1254 -0.2274  0.2977
    1W        W48183  20.461  18.155   9.022  0.4845  0.1158 -0.0097
    1W        W48184  28.774  15.286   0.007  0.3908 -0.2340  0.0343
    1W        W48185   7.407   1.435   7.416  0.1925  0.0028  0.0051
    1W        W48186  11.325  14.116   8.013  0.1004 -0.1202  0.2150
    1W        W48187  21.378  13.118   7.648 -0.0678 -0.0097 -0.0242
    1W        W48188  14.460   4.376   2.191 -0.1924  0.1907 -0.1342
    1W        W48189  17.544   8.060   1.673 -0.0103 -0.0134  0.1996
    1W        W48190  23.002  10.959   2.028  0.1531 -0.2302 -0.1612
    1W        W48191  14.069   3.269   7.838  0.2181 -0.2809 -0.1602
    1W        W48192  12.115  22.370   2.067 -0.0477  0.0277 -0.0756
    1W        W48193  13.815  12.496   8.817 -0.1319  0.1201  0.3712
    1W        W48194  24.197  24.832   0.988 -0.1299  0.3187 -0.0602
    1W        W48195  16.599  15.819   9.037 -0.0354 -0.0528 -0.1048
    1W        W48196  19.769  23.734   1.885 -0.0921  0.1786  0.5540
    1W        W48197   9.813  28.071   0.683  0.1366 -0.2647  0.0322
    1W        W48198   2.624  29.399   0.902 -0.0643  0.2874  0.1048
    1W        W48199  18.556  19.957   1.886 -0.2797 -0.2954  0.0432
    1W        W48200  16.453  19.781   1.700  0.2872 -0.0780 -0.1455
    1W        W48201   8.465  19.948   7.258  0.0651  0.5685  0.0026
    1W        W48202  25.007  21.831   1.735 -0.0045  0.0809 -0.0151
    1W        W48203   3.659   7.428   0.864 -0.0438  0.0642 -0.1456
    1W        W48204  21.186   2.853   6.463 -0.1772  0.0906  0.1534
    1W        W48205  22.148   8.182   0.284  0.1329 -0.2929  0.1979
    1W        W48206  15.363  20.211   0.780 -0.2163  0.1430  0.1509
    1W        W48207  28.989  27.503   0.852  0.1967  0.0687 -0.1096
    1W        W48208  18.379  24.974   1.516  0.0512  0.5034 -0.2692
    1W        W48209   9.207  20.122   0.698  0.3293 -0.2365  0.1733
    1W        W48210  25.039  25.443   7.731 -0.2929 -0.0095 -0.0472
    1W        W48211   8.773  18.263   1.319  0.0730 -0.3054  0.0748
    1W        W48212  16.626  18.358   8.377  0.0871  0.4559 -0.1466
    1W        W48213   2.791  19.996   8.640 -0.2802 -0.2681  0.0799
    1W        W48214  22.095  19.238   0.705 -0.1880 -0.1355 -0.0031
    1W        W48215   6.954  10.764   3.421  0.3046 -0.0475 -0.1352
    1W        W48216  21.504   1.678   6.918 -0.0775  0.1882  0.0612
    1W        W48217  20.820  22.722   0.876  0.0661 -0.1859  0.4350
    1W        W48218   8.703  18.461   8.874  0.0337 -0.0031 -0.0742
    1W        W48219   1.200   7.036   0.567 -0.0202 -0.2061  0.1589
    1W        W48220   4.795  23.849   1.777 -0.1721  0.0768 -0.0799
    1W        W48221  23.037  20.838   8.041 -0.0484  0.0800 -0.0131
    1W        W48222  21.671  25.467   3.342  0.0633 -0.2138  0.2987
    1W        W48223  19.201   9.772   0.272  0.0353  0.4988 -0.1399
    1W        W48224  15.287   0.663   7.295 -0.0344 -0.0200 -0.2282
    1W        W48225   2.177  18.435   2.367 -0.2278 -0.1597 -0.2293
    1W        W48226  27.831   6.281   1.854  0.1685  0.0680 -0.0577
    1W        W48227  20.200   5.366   0.018 -0.0246 -0.1675  0.1700
    1W        W48228   5.173  26.486   8.485  0.1142 -0.2500 -0.1394
    1W        W48229  29.597   6.649   8.274  0.0199  0.0530  0.2747
    1W        W48230  12.332  17.694   9.426  0.2596 -0.0103 -0.2393
    1W        W48231   9.725   1.309   9.438  0.1866  0.0382 -0.0360
    1W        W48232  26.850  25.421   1.220  0.2056  0.0646 -0.1593
    1W        W48233   0.067  29.680   9.169  0.0776  0.0398  0.1534
    1W        W48234   6.930  17.216   6.730  0.3812  0.2372  0.2863
    1W        W48235  18.515   9.550   1.075  0.0439 -0.2070  0.4823
    1W        W48236  17.383  27.523   0.769 -0.0612  0.0099  0.0872
    1W        W48237  18.696  21.212   7.998 -0.0156  0.1506  0.0498
    1W        W48238   7.164   2.214   6.828 -0.1078  0.3103 -0.0243
    1W        W48239  23.461   4.989   6.456 -0.7120 -0.2929 -0.2609
    1W        W48240  20.379   7.724   7.758 -0.0756  0.2863  0.0858
    1W        W48241  10.536  23.863   6.745  0.1793  0.3008  0.1084
    1W        W48242  20.804  17.616   7.922  0.0329  0.1591 -0.2110
    1W        W48243  18.270  21.007   0.529 -0.1183  0.0680  0.1761
    1W        W48244  12.635   6.696   0.224 -0.1062 -0.1129 -0.2748
    1W        W48245  12.059  29.026   7.194  0.0622 -0.2278 -0.0604
    1W        W48246  12.356  11.377   8.347  0.2735 -0.0210 -0.0592
    1W        W48247  23.742  16.119   7.986  0.0618 -0.0184 -0.1065
    1W        W48248   9.447  16.951   1.564 -0.1611 -0.0034  0.0890
    1W        W48249  26.159   6.540   6.500  0.0582 -0.0654  0.1697
    1W        W48250   0.924  26.507   2.192  0.2069  0.0491  0.2431
    1W        W48251   6.628  13.090   6.930 -0.0866  0.1473 -0.0789
    1W        W48252  17.789   6.125   7.043  0.0133 -0.1764 -0.2936
    1W        W48253   2.918  15.828   7.041  0.0846 -0.1160 -0.0182
    1W        W48254  20.872   2.177   7.322 -0.0106  0.0526 -0.0700
    1W        W48255  28.106  27.239   6.427  0.1804 -0.2160 -0.0292
    1W        W48256   5.789  27.224   0.123 -0.1291  0.2852 -0.2989
    1W        W48257  26.572   3.238   3.422  0.0273 -0.2628 -0.3079
    1W        W48258   2.147  26.085   7.976 -0.0057  0.0091 -0.0072
    1W        W48259  20.709   7.678   6.433  0.0071 -0.4451 -0.1886
    1W        W48260   2.431   1.031   2.120  0.0650  0.1557  0.1389
    1W        W48261  18.569  24.202   2.037  0.2126  0.1723  0.1111
    1W        W48262  18.286  15.738   0.402 -0.1628 -0.1494  0.3512
    1W        W48263   8.168   9.742   9.342  0.0211 -0.1569 -0.1378
    1W        W48264  17.261  10.712   7.430 -0.1197 -0.3617  0.1285
    1W        W48265  23.017   2.924   8.118 -0.2618  0.1431 -0.1121
    1W        W48266  17.947  22.777   9.170 -0.2613  0.0856  0.1600
    1W        W48267   2.585  29.803   7.726 -0.1086  0.1740 -0.1261
    1W        W48268  13.212   0.897   2.506 -0.1136  0.0412 -0.3706
    1W        W48269  22.762  28.714   1.038 -0.1702  0.3026 -0.4538
    1W        W48270  18.915  17.190   7.241  0.2650 -0.0625  0.0864
    1W        W48271  15.377  13.050   1.499 -0.2298 -0.0430 -0.1834
    1W        W48272  10.738  26.047   8.454 -0.1957 -0.0270 -0.0638
    1W        W48273  21.403  25.328   2.798  0.1096  0.0602 -0.1001
    1W        W48274   0.888   1.882   1.322 -0.0485  0.2844 -0.1290
    1W        W48275   0.404  24.891   7.090 -0.2498 -0.0274 -0.0142
    1W        W48276  21.971  18.410   9.351  0.1482 -0.2923 -0.0089
    1W        W48277  25.929  13.922   0.935 -0.0245  0.2637 -0.2822
    1W        W48278  15.086  10.463   1.519 -0.0121 -0.0986 -0.2793
    1W        W48279  19.226  24.981   8.535  0.1650 -0.1974  0.0183
    1W        W48280  10.531  24.436   1.210 -0.0672 -0.1657  0.2754
    1W        W48281  10.138   4.176   2.822 -0.0729 -0.3081 -0.1244
    1W        W48282  17.869  26.914   1.151 -0.0692 -0.2950  0.0611
    1W        W48283  21.643  15.984   9.167 -0.0622 -0.2899 -0.1523
    1W        W48284   1.009   1.205   1.750 -0.0841 -0.0257 -0.2269
    1W        W48285   5.892   9.793   2.979 -0.1703  0.3836 -0.0436
    1W        W48286  18.459  10.618   1.329 -0.3293 -0.0631 -0.1258
    1W        W48287   7.865  29.455   0.367  0.3352 -0.2130 -0.0695
    1W        W48288   7.883  22.741   1.089 -0.2677  0.0699 -0.1689
    1W        W48289  21.260  25.460   8.360  0.0216 -0.1577 -0.0451
    1W        W48290   7.325  23.156   6.816 -0.0497 -0.0187  0.0273
    1W        W48291  12.450  13.323   7.802 -0.0396  0.0143  0.2766
    1W        W48292  14.794  23.167   8.059 -0.0896 -0.1982  0.0079
    1W        W48293  20.204  19.867   2.080 -0.0960 -0.2197 -0.0317
    1W        W48294  13.324   7.207   7.318  0.1363  0.1392 -0.0308
    1W        W48295  24.722   3.884   1.606 -0.1691 -0.1831  0.0197
    1W        W48296  18.535  22.709   0.902 -0.0505 -0.2090 -0.2091
    1W        W48297   4.413   8.198   7.742  0.3280  0.0654  0.1498
    1W        W48298   3.558  16.629   6.083  0.2254  0.0048 -0.0099
    1W        W48299  14.473   4.017   0.435  0.0342 -0.0807 -0.3014
    1W        W48300  23.727   0.314   1.361 -0.2812 -0.0285 -0.1477
    1W        W48301  14.302  22.182   7.316 -0.1931  0.1517 -0.2723
    1W        W48302   5.587  26.342   9.391 -0.3976 -0.0932 -0.1797
    1W        W48303   7.559  17.152   6.118 -0.1417  0.1883 -0.1860
    1W        W48304  17.776  26.117   9.368 -0.2134  0.0057 -0.0911
    1W        W48305   6.420  13.290   6.098  0.0841  0.3337  0.2222
    1W        W48306  10.231   5.737   1.988 -0.2762  0.4478 -0.0820
    1W        W48307  11.804  14.075   0.837 -0.0236  0.1381  0.0067
    1W        W48308  12.839  21.281   7.870  0.0199  0.1884 -0.1148
    1W        W48309  17.715   4.106   8.642 -0.0763 -0.1944  0.2127
    1W        W48310   6.548   0.424   0.673 -0.0519 -0.0328 -0.0246
    1W        W48311  13.216   2.560   4.032 -0.0560  0.1085 -0.3087
    1W        W48312   6.808  19.299   7.186  0.0425 -0.0402  0.0404
    1W        W48313  10.315  25.585   0.975 -0.0209 -0.0595 -0.1517
    1W        W48314  28.566  19.026   8.056  0.0030  0.2837 -0.0806
    1W        W48315  23.422   9.339   8.036 -0.1000  0.1315  0.2463
    1W        W48316   1.819   2.101   1.178 -0.0012  0.1689  0.0683
    1W        W48317  10.038   3.394   1.305  0.0373  0.2503 -0.0524
    1W        W48318   8.584  14.706   7.471 -0.1878  0.0589  0.0540
    1W        W48319  12.023  28.112   6.796  0.1057  0.1455  0.2662
    1W        W48320  19.705  19.423   8.982 -0.0285  0.0599  0.1188
    1W        W48321  18.657  11.546   8.229  0.0781  0.1243  0.0647
    1W        W48322  27.075  24.951   8.548 -0.1849 -0.0383 -0.2893
    1W        W48323  17.774   4.786   0.492  0.3811 -0.2352  0.0402
    1W        W48324  18.460   9.199   1.569  0.2257 -0.0495  0.1271
    1W        W48325   9.514   9.517   2.682  0.1091  0.1448 -0.1208
    1W        W48326  16.844  20.409   3.011  0.1111 -0.0779  0.0511
    1W        W48327  16.607   6.959   1.961  0.3172 -0.0967 -0.1085
    1W        W48328  26.418  28.386   0.743 -0.1866  0.2355 -0.1903
    1W        W48329  16.228  27.197   8.685 -0.1792 -0.2496 -0.1770
    1W        W48330  13.276  11.104   0.264  0.0052  0.0041 -0.2754
    1W        W48331  15.502   9.708   2.034  0.0599  0.0931  0.2586
    1W        W48332  11.856  20.161   0.202  0.1614 -0.0108 -0.1616
    1W        W48333  19.890  28.796   7.509 -0.2401 -0.1098 -0.1273
    1W        W48334   5.903   4.160   7.947  0.0289  0.1872  0.2469
    1W        W48335  28.472  21.775   8.936  0.0017  0.4006 -0.1771
    1W        W48336  25.001  19.246   7.234  0.0375 -0.0568  0.0240
    1W        W48337  17.299  29.585   7.520  0.0830  0.0469  0.1496
    1W        W48338  11.523  22.757   0.285  0.5055 -0.3104  0.0188
    1W        W48339  28.519   5.039   1.844  0.0439 -0.0998  0.1906
    1W        W48340  14.319   8.235   2.478 -0.4089 -0.0653  0.0438
    1W        W48341   1.499   5.306   7.660 -0.0494  0.2868  0.2898
    1W        W48342   0.947  25.391   5.936 -0.2432 -0.0299  0.0585
    1W        W48343  20.831  14.059   7.313  0.0995  0.1913 -0.3086
    1W        W48344  28.048  12.860   1.057 -0.1010  0.3178  0.1502
    1W        W48345   0.028   4.179   0.230 -0.0318  0.0950  0.1710
    1W        W48346  28.491   0.405   7.007  0.2940  0.1827 -0.2835
    1W        W48347  18.346   9.117   9.084  0.0800  0.1687 -0.2623
    1W        W48348   0.426  11.173   6.714  0.2002  0.1240  0.3255
    1W        W48349  13.916  21.425   1.936 -0.0964 -0.4053  0.1229
    1W        W48350   5.894  12.902   7.401  0.0081  0.0338 -0.1169
    1W        W48351  26.795  19.569   7.119 -0.0612  0.2523 -0.0705
    1W        W48352  19.222  19.358   9.217 -0.0182  0.1613 -0.2299
    1W        W48353   2.738  14.512   8.484 -0.2202 -0.0774 -0.1678
    1W        W48354  27.556  28.201   8.329 -0.1950 -0.0239  0.1753
    1W        W48355  26.540   7.766   1.126 -0.1253 -0.4192  0.0008
    1W        W48356  17.997  16.384   0.275 -0.1134 -0.2219 -0.1510
    1W        W48357  17.924  18.245   8.667  0.0066  0.0158 -0.1725
    1W        W48358   2.609   6.078   9.393 -0.0358 -0.1811  0.2483
    1W        W48359   1.574  14.361   7.500 -0.1581  0.0826  0.1628
    1W        W48360  25.772  20.282   1.763 -0.1343  0.0264  0.2216
    1W        W48361  10.912  19.435   6.594 -0.0575  0.0724  0.2716
    1W        W48362  23.379  20.430   1.442 -0.2668 -0.4628 -0.1310
    1W        W48363  14.489  24.887   2.521 -0.1534 -0.0831 -0.2430
    1W        W48364   2.738   3.542   0.713 -0.2431 -0.2138 -0.2477
    1W        W48365  28.442  21.712   7.116  0.1071  0.0986  0.1498
    1W        W48366  21.608  21.203   0.810 -0.2066 -0.0549 -0.1887
    1W        W48367   0.734  23.392   6.802 -0.0918 -0.0793 -0.0558
    1W        W48368  29.257  29.328   8.413 -0.2011 -0.0552 -0.4852
    1W        W48369  12.308  11.654   1.601  0.1895  0.2788  0.0648
    1W        W48370  14.375   2.581   1.832 -0.3589 -0.0201  0.1609
    1W        W48371  13.300   9.679   9.192  0.0875  0.1950 -0.0348
    1W        W48372  27.465   6.083   8.911  0.1215 -0.0056  0.2858
    1W        W48373  16.689   7.474   8.462 -0.0303 -0.1278 -0.0656
    1W        W48374  15.704  28.568   3.227 -0.3559  0.0974  0.0779
    1W        W48375  14.722  11.844   1.912 -0.0748 -0.2127 -0.1930
    1W        W48376  17.902   5.276   1.958  0.4748  0.1060 -0.0877
    1W        W48377   8.549  16.324   9.389 -0.0189  0.0764  0.0872
    1W        W48378   0.135  20.982   8.135  0.2213  0.0188  0.1083
    1W        W48379  10.927  21.483   8.824 -0.1172 -0.4519 -0.2205
    1W        W48380   0.165  14.565   6.940  0.1292 -0.1142  0.1489
    1W        W48381  27.907  10.304   6.736 -0.0313 -0.1326 -0.0475
    1W        W48382  28.408  22.131   6.529  0.0969 -0.4787  0.0793
    1W        W48383   2.635   5.560   9.422  0.1427  0.0952 -0.2603
    1W        W48384   4.984  22.766   1.691 -0.0283 -0.2428 -0.2025
    1W        W48385  22.580  13.496   0.287  0.0111 -0.1010  0.1909
    1W        W48386  19.562  28.804   2.928  0.0198  0.0329  0.0719
    1W        W48387  21.513  23.309   0.329 -0.4141  0.3865 -0.1143
    1W        W48388   2.232  19.592   7.250 -0.2811  0.0125  0.1040
    1W        W48389  29.250  14.813   0.734  0.0418 -0.1104  0.2428
    1W        W48390   9.536  16.846   7.817 -0.0066 -0.1227  0.1108
    1W        W48391  10.821  19.512   1.775 -0.1257  0.1424 -0.0036
    1W        W48392  13.721  16.762   8.490 -0.1687  0.0186  0.1812
    1W        W48393   9.617   4.654   9.001  0.2876 -0.1092 -0.2187
    1W        W48394  16.737  15.330   9.172 -0.1131  0.1257  0.1489
    1W        W48395  15.930   2.225   8.570 -0.0403  0.0619  0.2748
    1W        W48396  14.215   8.764   2.356  0.2922  0.1661  0.2974
    1W        W48397  21.997   8.342   1.254 -0.1025  0.2663 -0.0700
    1W        W48398  12.589   3.367   2.062  0.2348  0.1434  0.0497
    1W        W48399  13.023  28.985   2.183  0.1095  0.1174  0.1831
    1W        W48400  29.693  27.977   8.197  0.0838  0.1419 -0.1986
    1W        W48401   5.645  25.780   1.384 -0.1207 -0.2023  0.0887
    1W        W48402  15.935  20.525   7.222  0.0241 -0.0089  0.1164
    1W        W48403   8.247  17.496   1.204 -0.0613 -0.0011 -0.1901
    1W        W48404   1.701   0.647   8.029  0.1972 -0.2358  0.0306
    1W        W48405  21.209   4.984   6.394  0.7405 -0.2112  0.1390
    1W        W48406  10.740  21.222   0.173 -0.1683  0.0657 -0.1464
    1W        W48407   3.124  11.611   6.802  0.0304 -0.0751 -0.0774
    1W        W48408  17.524  13.739   7.899  0.2446  0.1099 -0.1354
    1W        W48409   6.975  16.944   7.629 -0.0950 -0.0545  0.0105
    1W        W48410  15.466  27.733   1.737 -0.5796  0.1128 -0.1045
    1W        W48411   4.296  21.054   8.616  0.0790 -0.1053 -0.2615
    1W        W48412   4.551   5.089   7.853  0.0206 -0.1200 -0.2341
    1W        W48413  18.170  15.180   1.817  0.0011  0.0262  0.2204
    1W        W48414  12.578  18.963   8.990  0.0073 -0.0048 -0.3603
    1W        W48415  26.942  15.026   8.174  0.1493 -0.0578  0.1415
    1W        W48416  17.845  21.835   8.009  0.0539  0.3126  0.1671
    1W        W48417  24.849  25.092   8.201  0.1131 -0.2440  0.1403
    1W        W48418   0.225  25.922   7.240  0.0031 -0.4714  0.0748
    1W        W48419   5.344  22.035   8.074  0.0465  0.3328 -0.0056
    1W        W48420   6.066   8.292   1.310 -0.0232 -0.0438 -0.0920
    1W        W48421  17.132   7.324   0.484  0.0992  0.0132  0.2420
    1W        W48422   7.650  18.402   8.739 -0.0281 -0.1923 -0.1951
    1W        W48423  24.021  16.229   6.653 -0.0219  0.2254  0.1727
    1W        W48424   9.567  11.579   0.359  0.2943  0.2876  0.2390
    1W        W48425  13.371   7.915   1.055  0.3995  0.1395 -0.2549
    1W        W48426   4.830  28.369   6.935 -0.0560 -0.1061  0.0423
    1W        W48427  10.866   3.198   1.826  0.3139 -0.2029 -0.4610
    1W        W48428   1.796  24.106   6.597  0.0706 -0.0241  0.1089
    1W        W48429  26.172  22.860   7.212 -0.2180  0.2864  0.3077
    1W        W48430   8.170  29.781   1.353  0.0475 -0.1846 -0.0403
    1W        W48431  15.750   2.229   8.080  0.1095  0.1332  0.3702
    1W        W48432  29.270  19.606   5.989  0.0425 -0.0782  0.0027
    1W        W48433   3.361  18.776   1.611 -0.1945  0.3513 -0.1861
    1W        W48434  13.205  24.693   0.459  0.2116 -0.1048 -0.4537
    1W        W48435  13.034   2.573   0.241 -0.1075 -0.1282  0.0975
    1W        W48436  19.174   5.868   7.501 -0.1660  0.1626  0.1751
    1W        W48437  23.862   9.697   0.850  0.3083 -0.4122 -0.1536
    1W        W48438  11.249   5.192   1.324 -0.0937  0.0178  0.2084
    1W        W48439  16.117   3.654   7.658  0.1310  0.2360  0.3054
    1W        W48440  26.945  22.432   7.176 -0.0346  0.1504  0.0815
    1W        W48441  26.350   6.613   3.331 -0.2351 -0.1524 -0.1527
    1W        W48442   5.668  12.041   2.378 -0.0997  0.3292 -0.1474
    1W        W48443  28.401  20.514   7.891  0.0426  0.0794  0.0901
    1W        W48444  26.876   4.884   0.249 -0.1354 -0.0035  0.0936
    1W        W48445  21.721  12.428   7.098 -0.1111  0.0142 -0.2768
    1W        W48446   3.180  11.486   7.755 -0.0313  0.0250 -0.0987
    1W        W48447  26.341  16.985   7.152 -0.1231 -0.0528 -0.2456
    1W        W48448  25.200  16.939   1.670  0.0012 -0.1143  0.0213
    1W        W48449  25.102  12.175   7.327  0.0651  0.0561 -0.0975
    1W        W48450   4.394  28.499   7.150 -0.0852  0.0960  0.1872
    1W        W48451  17.626  10.240   1.840 -0.1859  0.3047 -0.0362
    1W        W48452  13.134  10.899   1.231 -0.0674  0.3461  0.0126
    1W        W48453  27.970  27.586   1.690 -0.0375  0.0568  0.0031
    1W        W48454  26.147  27.870   7.248 -0.0153 -0.0733 -0.0884
    1W        W48455   4.333   3.164   1.197  0.1628  0.1632  0.0141
    1W        W48456  14.856  23.257   7.151  0.1198 -0.0593  0.0134
    1W        W48457  18.916  20.188   9.181  0.1916 -0.1593  0.1127
    1W        W48458   6.351   4.396   2.970  0.1946  0.1018 -0.2432
    1W        W48459   7.128  14.879   7.665 -0.2747 -0.0342  0.0290
    1W        W48460  17.373   3.179   2.026  0.0458  0.0074  0.0837
    1W        W48461  24.850  15.773   6.494 -0.0327 -0.1829 -0.1526
    1W        W48462   7.776   0.869   1.045  0.0752  0.0964 -0.3532
    1W        W48463  24.445  26.986   1.575 -0.2009  0.0710 -0.0434
    1W        W48464   5.833  22.160   7.990 -0.3499  0.0988 -0.1209
    1W        W48465  24.066  13.495   0.698 -0.3966  0.1228 -0.1710
    1W        W48466  11.448  14.361   2.638 -0.0635  0.0152 -0.4171
    1W        W48467  27.944  24.052   0.952  0.0116 -0.1007  0.1095
    1W        W48468  22.279   4.743   2.460  0.0586  0.0309 -0.0992
    1W        W48469   6.220   2.489   0.475 -0.3327 -0.0336 -0.1102
    1W        W48470  25.971  18.785   7.211  0.1308 -0.1254 -0.0966
    1W        W48471  27.707  13.457   7.141  0.1432 -0.0315  0.1763
    1W        W48472  19.701   2.438   1.860  0.1320 -0.0655 -0.2213
    1W        W48473  13.396   2.134   8.627 -0.0383 -0.3599 -0.1910
    1W        W48474  22.915  28.618   2.552  0.0636 -0.0970 -0.1615
    1W        W48475   2.184  14.840   0.429 -0.1600 -0.1033  0.0773
    1W        W48476  15.156  27.083   7.604 -0.2311 -0.1184 -0.3648
    1W        W48477  22.485  28.716   7.580  0.0537  0.2539  0.2333
    1W        W48478   9.698  23.429   7.048  0.3398 -0.1276 -0.0095
    1W        W48479  22.881   1.519   8.806  0.3572 -0.1508 -0.2336
    1W        W48480   8.509  21.692   0.185 -0.2499 -0.0467 -0.2739
    1W        W48481   2.428  18.521   9.451 -0.3051  0.2195 -0.2335
    1W        W48482  15.155  16.286   8.384  0.1505  0.0685 -0.0267
    1W        W48483  19.330   3.687   9.189 -0.4348 -0.0237 -0.2978
    1W        W48484  17.001  25.604   2.193  0.0808 -0.1834 -0.0459
    1W        W48485  29.005  14.009   7.274  0.0092 -0.0403 -0.1667
    1W        W48486   2.552  23.476   6.281 -0.0637  0.0651  0.1136
    1W        W48487   0.804   5.594   0.492  0.0376  0.1539  0.1841
    1W        W48488  14.168  29.437   0.508  0.1600  0.1867 -0.1038
    1W        W48489  16.098  15.364   0.459  0.2340 -0.3646 -0.1634
    1W        W48490  19.292  28.988   2.077  0.0212  0.0864 -0.3367
    1W        W48491  10.083  22.642   6.832  0.2925 -0.0257 -0.1492
    1W        W48492  13.915  21.955   0.108  0.1317  0.0111  0.0121
    1W        W48493  11.354  21.669   2.311  0.1940 -0.1187 -0.0145
    1W        W48494  20.384   0.008   3.277 -0.6879 -0.0812 -0.0508
    1W        W48495  16.799   5.933   1.591 -0.0688 -0.0528  0.0382
    1W        W48496   0.395  15.359   6.939 -0.1074 -0.1209 -0.3226
    1W        W48497  29.314   6.598   0.605 -0.0618  0.2992  0.3112
    1W        W48498   8.711  29.398   8.167  0.0394 -0.1194  0.1056
    1W        W48499  23.263  23.859   9.270  0.2142 -0.1134 -0.4382
    1W        W48500   8.534  10.394   2.583 -0.0311 -0.2030  0.2540
    1W        W48501  24.407  21.632   0.610 -0.3280  0.1770 -0.0651
    1W        W48502  21.636   7.242   6.451  0.0323 -0.2091  0.0292
    1W        W48503  14.282   3.180   6.958  0.0490 -0.2166 -0.1380
    1W        W48504  11.929   8.373   7.469 -0.2794  0.2075 -0.1124
    1W        W48505   1.030   4.567   2.876 -0.0326  0.0329 -0.0959
    1W        W48506   9.051   3.610   8.840 -0.0071 -0.1172  0.0457
    1W        W48507  21.462  17.002   6.882  0.3236 -0.1140 -0.0939
    1W        W48508   6.244  15.315   7.506  0.0916  0.0527 -0.0850
    1W        W48509   2.942  17.593   5.697 -0.2167  0.1313 -0.1236
    1W        W48510  21.109  18.731   7.705  0.0509  0.0650 -0.1744
    1W        W48511  25.765   7.155   1.505 -0.4198 -0.0786  0.0153
    1W        W48512  26.805  17.568   9.171 -0.2300 -0.0674  0.2673
    1W        W48513   8.278  18.064   7.524  0.0345 -0.0714  0.1749
    1W        W48514  21.094   4.772   2.442  0.0705  0.0780 -0.2219
    1W        W48515   3.705  20.384   2.012  0.1071 -0.0164 -0.0573
    1W        W48516   8.648   5.973   3.568 -0.2362  0.0055 -0.3856
    1W        W48517  19.606  12.299   8.396 -0.3419  0.1107 -0.0955
    1W        W48518  14.490   5.318   7.736 -0.1318  0.1243 -0.0413
    1W        W48519  22.877  21.979   0.362 -0.3613 -0.0328 -0.1182
    1W        W48520  14.239   7.580   0.746  0.0847 -0.0703 -0.0525
    1W        W48521  14.410   0.837   7.905  0.1894  0.1421  0.2090
    1W        W48522  11.796  12.478   7.471  0.0310 -0.0098 -0.1968
    1W        W48523   1.821   7.800   1.329  0.0422  0.3672  0.1699
    1W        W48524  26.788   2.184   1.578  0.1324 -0.1184 -0.3275
    1W        W48525   7.573  23.998   8.480 -0.1353 -0.1333 -0.1488
    1W        W48526   2.835   1.320   9.304 -0.1670  0.3711  0.2593
    1W        W48527   0.001   7.239   6.795 -0.1840 -0.3427 -0.0147
    1W        W48528  26.729   2.942   7.905 -0.1090 -0.0438 -0.0986
    1W        W48529  27.658  23.842   8.744 -0.2375  0.1478  0.1924
    1W        W48530   9.266  28.802   1.778  0.1216 -0.2784 -0.1941
    1W        W48531  20.594  20.679   1.542  0.0623 -0.2946 -0.2664
    1W        W48532   9.216  16.637   8.688  0.1939 -0.0830  0.0119
    1W        W48533   7.880  19.417   6.550 -0.0549 -0.0278 -0.0750
    1W        W48534  26.219  21.260   1.692  0.2993  0.1110  0.0252
    1W        W48535  22.928  18.301   7.602 -0.0245  0.0726 -0.1074
    1W        W48536  14.434   3.587   8.001  0.1773  0.0411  0.0132
    1W        W48537  19.691  21.041   6.855 -0.0884 -0.2228  0.0492
    1W        W48538  21.616  23.357   1.876 -0.0773  0.1656  0.0434
    1W        W48539  11.531   5.706   8.028 -0.0481 -0.1145  0.2319
    1W        W48540  21.945  12.106   6.789  0.2556  0.0791  0.1173
    1W        W48541  26.106  22.711   1.822  0.3173  0.2441 -0.1004
    1W        W48542  21.798  27.619   1.437  0.1704 -0.0120 -0.0245
    1W        W48543   0.302   3.983   8.681  0.2705  0.1133  0.1225
    1W        W48544   2.513   0.932   9.083  0.0606  0.0495  0.0421
    1W        W48545  20.492  16.583   6.836  0.2895 -0.1849 -0.1294
    1W        W48546  25.497   2.326   2.965 -0.1559  0.3794 -0.3028
    1W        W48547   5.604   5.273   7.584 -0.1260  0.1207 -0.1457
    1W        W48548  19.694  19.163   0.840  0.1956  0.2438 -0.0094
    1W        W48549  21.168   9.283   6.979  0.2005 -0.1408  0.2174
    1W        W48550   1.811  28.886   6.687  0.1609  0.1256 -0.0396
    1W        W48551  14.053  15.047   1.972  0.1653  0.3627 -0.2537
    1W        W48552  16.823  26.338   7.635  0.0890 -0.1290 -0.4038
    1W        W48553  18.073  11.848   0.672 -0.1188  0.3923 -0.1610
    1W        W48554   7.104  12.379   8.586 -0.0927 -0.0677  0.1328
    1W        W48555   4.164  15.834   7.966 -0.1147 -0.1771 -0.3330
    1W        W48556  10.782   5.509   7.420 -0.2067  0.2796  0.0806
    1W        W48557   7.313  23.571   8.379  0.1142  0.1936 -0.2642
    1W        W48558  14.758  24.320   6.861  0.0130 -0.1588 -0.0702
    1W        W48559  23.516  13.471   0.340  0.1727 -0.0252  0.1889
    1W        W48560  13.307   0.914   3.190 -0.0087 -0.2363  0.0885
    1W        W48561   6.505  18.657   0.584  0.1441 -0.1133  0.0287
    1W        W48562  29.261  12.267   2.296  0.2634  0.0698  0.2714
    1W        W48563  16.176  28.627   9.262 -0.0124 -0.0409  0.0045
    1W        W48564   6.966  28.831   7.181 -0.0441 -0.1539 -0.1522
    1W        W48565   0.787  17.619   7.061 -0.1464  0.1468 -0.0259
    1W        W48566  28.074  24.030   1.514 -0.0627  0.0919 -0.1204
    1W        W48567   5.681   8.905   6.794  0.0586  0.0173  0.0027
    1W        W48568  12.506  15.093   0.311  0.0502  0.1335  0.0249
    1W        W48569   7.178   6.888   8.840 -0.5501 -0.1152  0.0176
    1W        W48570   2.518  11.551   6.907  0.0524  0.0040 -0.1936
    1W        W48571  20.779   5.138   2.852 -0.0592  0.0794 -0.1237
    1W        W48572   2.513  26.993   9.044  0.2021 -0.1812  0.2966
    1W        W48573   0.947  14.050   5.587  0.2586  0.0770 -0.0852
    1W        W48574  15.654   0.929   2.192 -0.4166 -0.1329 -0.0946
    1W        W48575   0.220  23.443   9.377  0.3405  0.0400 -0.0266
    1W        W48576   3.749  12.690   6.776 -0.1996  0.4533 -0.0347
    1W        W48577  26.176  28.719   1.881  0.3348 -0.3826 -0.1959
    1W        W48578  27.229  26.332   2.765 -0.0857  0.1087 -0.0038
    1W        W48579  11.737  17.451   1.920 -0.0314  0.2412  0.1565
    1W        W48580   3.034  17.459   8.126  0.1455 -0.0790 -0.1748
    1W        W48581  22.143  14.125   8.957  0.0893 -0.0481 -0.2924
    1W        W48582   0.071   7.548   9.329  0.1346  0.0182  0.0635
    1W        W48583  15.149  22.798   2.450  0.2357 -0.4192 -0.1068
    1W        W48584   4.874   0.291   2.005  0.2332 -0.3635  0.2776
    1W        W48585  13.048  21.706   7.263  0.1573 -0.0292 -0.3914
    1W        W48586   1.413  17.276   1.276 -0.0034 -0.2056  0.2073
    1W        W48587  17.592  22.299   1.937 -0.0219  0.1284 -0.0371
    1W        W48588  22.167   7.391   0.122 -0.2603  0.2036  0.3458
    1W        W48589   5.589   2.910   1.523 -0.1610  0.1184 -0.3061
    1W        W48590   1.082  29.301   2.284  0.0330 -0.1561  0.0391
    1W        W48591  14.661   2.652   1.332  0.3014  0.1486 -0.0408
    1W        W48592  28.269  26.562   6.923 -0.0450 -0.1171  0.0584
    1W        W48593   1.311  11.767   1.912  0.3437  0.1278  0.2091
    1W        W48594  27.539  24.191   6.993  0.1951 -0.0597 -0.0676
    1W        W48595  11.406  27.546   7.021 -0.0285  0.1911 -0.2002
    1W        W48596  13.302  26.839   7.523 -0.3122  0.1445 -0.0256
    1W        W48597  27.478  29.251   7.120 -0.4949  0.2552  0.0404
    1W        W48598   6.502  21.682   9.245 -0.4964  0.1631 -0.1194
    1W        W48599   9.687  16.805   2.555 -0.1504  0.0342 -0.1345
    1W        W48600  14.362   5.402   3.538  0.0143  0.1085 -0.0271
    1W        W48601  24.910   2.484   9.172  0.0456 -0.0178  0.0994
    1W        W48602  28.794  17.725   0.491  0.0037  0.2752 -0.0075
    1W        W48603   0.090  10.197   2.030  0.2713 -0.0413  0.2520
    1W        W48604   0.665  13.856   1.897 -0.3989  0.2434 -0.1579
    1W        W48605   3.488  17.011   1.251 -0.0240  0.1002  0.2222
    1W        W48606  17.653   1.221   0.284 -0.0392 -0.0754 -0.0176
    1W        W48607  20.513  27.511   0.084  0.1139  0.2434 -0.1481
    1W        W48608  21.316  17.915   1.107 -0.0528 -0.2433  0.1692
    1W        W48609  10.947  13.082   0.844  0.0453  0.0568 -0.0025
    1W        W48610  21.407  25.296   7.879  0.1215 -0.1304  0.2919
    1W        W48611  21.903   1.314   7.783 -0.3476 -0.3184  0.2699
    1W        W48612   6.368   9.449   7.408 -0.1439 -0.0416  0.0095
    1W        W48613   8.526  26.701   8.782  0.2404  0.2298 -0.0626
    1W        W48614  26.219  17.666   7.581 -0.1508  0.1237 -0.1685
    1W        W48615  26.679   4.035   8.353 -0.1441 -0.1853  0.0489
    1W        W48616  22.683   1.865   7.390 -0.1499  0.0438  0.0092
    1W        W48617  19.117   8.261   8.154 -0.0058 -0.1659 -0.3041
    1W        W48618  14.432  15.356   7.727 -0.1305  0.2179 -0.0439
    1W        W48619   0.900  23.938   7.802  0.3024 -0.1007  0.2129
    1W        W48620  10.305  20.043   6.879  0.2425 -0.0539 -0.4037
    1W        W48621  20.312  14.696   1.065 -0.0482 -0.1327  0.1781
    1W        W48622  22.322   0.924   2.666 -0.0326 -0.0013  0.2023
    1W        W48623   6.323  26.123   7.480 -0.3483  0.0470  0.2419
    1W        W48624  16.713  27.476   8.596 -0.0529  0.0616 -0.1525
    1W        W48625  26.285   4.566   8.567 -0.1531  0.4499  0.0453
    1W        W48626   1.827   1.059   0.344  0.3428  0.1005  0.3658
    1W        W48627  26.913  15.995   7.677 -0.0231 -0.1009 -0.2473
    1W        W48628  14.048  15.688   7.550  0.4084  0.0928 -0.0464
    1W        W48629  17.011  18.304   1.286 -0.0869 -0.1666 -0.0506
    1W        W48630  19.314  22.100   8.356  0.2432 -0.1838 -0.3208
    1W        W48631  15.970  25.193   1.615 -0.0641 -0.0496 -0.1387
    1W        W48632  19.304  25.385   1.468 -0.0513 -0.0387  0.0049
    1W        W48633  16.879  13.402   8.995  0.1572  0.0503  0.0983
    1W        W48634   0.585   7.819   7.258  0.0494  0.0033  0.0423
    1W        W48635  14.836  20.296   1.013 -0.2653  0.4166 -0.1356
    1W        W48636   3.547  22.283   1.817  0.0925  0.1184 -0.0368
    1W        W48637  11.761   1.123   7.682  0.0755  0.2810  0.1164
    1W        W48638  26.184  11.063   6.959  0.1619  0.1898  0.0288
    1W        W48639   2.769   6.405   8.531  0.1474 -0.1237  0.1211
    1W        W48640   3.665  19.806   8.164 -0.1368  0.0108 -0.0787
    1W        W48641   2.136  11.938   7.147 -0.0887  0.0630 -0.2381
    1W        W48642   8.753  27.662   2.313  0.0721 -0.3129  0.0409
    1W        W48643  12.892  23.249   1.545  0.0168  0.2941 -0.1913
    1W        W48644  18.220   2.311   7.451 -0.0461  0.1451 -0.1386
    1W        W48645  14.710  17.291   9.104  0.0229 -0.0037 -0.0188
    1W        W48646  11.514  15.761   0.594 -0.2114  0.2023 -0.3725
    1W        W48647  15.094  26.278   9.283 -0.0484 -0.0401  0.0110
    1W        W48648  26.473  15.387   0.621 -0.0316 -0.0644 -0.2335
    1W        W48649  29.615  19.761   0.985  0.0356  0.0547  0.0876
    1W        W48650  12.514   7.022   2.783 -0.0481  0.0432  0.4304
    1W        W48651  17.969  22.066   2.094 -0.1106 -0.2128  0.0163
    1W        W48652  12.752  23.976   0.848 -0.1064  0.3006  0.2362
    1W        W48653   8.287  16.856   1.236 -0.0916 -0.1065  0.1454
    1W        W48654  12.951   8.250   9.331 -0.1219  0.0875 -0.1652
    1W        W48655  10.881  19.346   7.052 -0.1359 -0.0770  0.0501
    1W        W48656   8.406   2.585   9.372 -0.0010 -0.5611  0.1176
    1W        W48657  23.872   9.141   8.241 -0.0561 -0.1701  0.2561
    1W        W48658   9.648  12.759   2.592  0.0724 -0.0133 -0.2690
    1W        W48659   2.708  24.977   1.406 -0.0167 -0.0800 -0.2545
    1W        W48660  26.916  28.324   7.147  0.2662 -0.3418  0.0534
    1W        W48661  25.854  12.035   6.890  0.3300 -0.2310 -0.4308
    1W        W48662  10.413   2.796   0.656  0.1131  0.1794 -0.1545
    1W        W48663  19.968  27.905   7.690 -0.1654  0.2794 -0.1656
    1W        W48664   5.291  15.266   0.205 -0.0063  0.1595  0.2754
    1W        W48665  23.397   4.501   3.044  0.2954  0.0833 -0.1375
    1W        W48666  17.940   1.118   7.569  0.0746 -0.3316  0.2359
    1W        W48667  19.660   9.948   9.448 -0.1227 -0.0795  0.0547
    1W        W48668  25.483   1.029   1.660 -0.2822 -0.0680  0.0271
    1W        W48669  10.596   5.029   9.168 -0.1730 -0.1440 -0.0635
    1W        W48670  17.984  20.604   0.597 -0.3080 -0.1492  0.1371
    1W        W48671   5.226  24.187   6.420 -0.1011 -0.1549 -0.4495
    1W        W48672   3.573  16.892   9.095  0.2316 -0.0068 -0.0489
    1W        W48673  21.408  11.590   8.518  0.4189  0.3052 -0.2069
    1W        W48674  23.579  29.330   2.882  0.2172  0.0111 -0.0753
    1W        W48675  16.096  19.181   1.688 -0.0210  0.5620 -0.1024
    1W        W48676  20.939  11.657   0.697 -0.2153 -0.2130 -0.0635
    1W        W48677  17.393  18.180   1.673  0.1658 -0.3023  0.1999
    1W        W48678  26.842  22.138   0.094  0.1390 -0.0965  0.0267
    1W        W48679  19.155  20.778   8.486 -0.1340  0.1515  0.0737
    1W        W48680   4.589  20.571   7.355 -0.0991 -0.1094  0.0754
    1W        W48681  10.917  17.477   6.246  0.1408 -0.0329  0.0464
    1W        W48682  17.761  23.309   7.472  0.0647 -0.0128  0.2163
    1W        W48683   3.692   4.790   1.340  0.1195 -0.3080  0.1114
    1W        W48684  27.523   6.914   9.282 -0.2266  0.0928  0.0451
    1W        W48685  13.931  14.254   9.410 -0.1587 -0.0420 -0.0384
    1W        W48686  29.457   3.229   7.618  0.2930  0.1815 -0.0937
    1W        W48687  26.990   0.099   2.007 -0.0948  0.2270 -0.0493
    1W        W48688  24.037  13.868   7.976 -0.2267  0.3265  0.2815
    1W        W48689   9.377   7.872   1.153 -0.0016  0.2377  0.0472
    1W        W48690  22.914  16.671   1.113 -0.2049  0.0757 -0.2643
    1W        W48691   0.291   9.980   7.275  0.0079  0.1180  0.1532
    1W        W48692   1.489  13.073   0.712  0.0930 -0.0536 -0.4212
    1W        W48693  25.562  25.051   2.471 -0.0773  0.1975  0.0135
    1W        W48694   8.660  25.891   1.369 -0.1522 -0.1821  0.1009
    1W        W48695  15.902  28.642   0.217 -0.1518 -0.2836 -0.1331
    1W        W48696   0.597  29.397   2.159  0.2064 -0.1311  0.0873
    1W        W48697   6.468  28.328   7.866 -0.2339  0.2086 -0.0895
    1W        W48698  19.341  11.703   7.098  0.1547 -0.2070  0.0743
    1W        W48699  29.417   9.379   6.848 -0.1828  0.2886 -0.2648
    1W        W48700  15.487  26.451   1.499  0.0865 -0.0668  0.1471
    1W        W48701  13.001  10.654   0.123 -0.2402 -0.1698  0.1980
    1W        W48702  18.096   1.049   6.378  0.0068 -0.2138 -0.0637
    1W        W48703  18.975  29.059   9.072  0.1440 -0.1075  0.1051
    1W        W48704  11.708  17.485   6.831  0.1060 -0.1076 -0.1964
    1W        W48705  16.963   2.671   8.501 -0.1216  0.2270  0.0502
    1W        W48706   5.191  25.949   8.607  0.2304  0.2285 -0.2083
    1W        W48707   8.885  14.305   7.555  0.1722 -0.2975  0.0624
    1W        W48708  29.671  19.286   1.129 -0.0693 -0.1476 -0.0946
    1W        W48709  17.030  27.095   2.089 -0.0143  0.0602  0.4933
    1W        W48710   8.897  26.336   0.743 -0.2090  0.0068 -0.0167
    1W        W48711   2.601  16.034   0.738 -0.0416  0.1300  0.1815
    1W        W48712  14.783   5.916   9.311  0.0672  0.2071  0.3714
    1W        W48713  20.575   5.349   0.866  0.0610  0.1649 -0.0888
    1W        W48714   8.432   9.255   3.482  0.0316  0.3501 -0.0133
    1W        W48715   9.287  13.663   8.677  0.2253 -0.0648 -0.0651
    1W        W48716  23.829   3.973   2.489 -0.0664  0.2288  0.2544
    1W        W48717   1.165  20.689   7.162 -0.5472  0.0375 -0.2268
    1W        W48718   8.446   7.790   7.541 -0.0778  0.0797  0.1068
    1W        W48719   8.540  25.079   7.445 -0.3332 -0.1940 -0.2284
    1W        W48720   3.067   1.785   0.009  0.1179 -0.3360  0.1851
    1W        W48721  12.523  18.190   8.425  0.1882  0.1771 -0.1144
    1W        W48722  15.782  13.495   0.122  0.0495 -0.1631  0.0825
    1W        W48723  11.258  10.324   7.691 -0.1120  0.0952 -0.0518
    1W        W48724  18.631   2.535   2.384  0.0256  0.1200 -0.0084
    1W        W48725  27.481  22.775   7.327  0.0447  0.3377  0.1888
    1W        W48726   6.654  19.539   0.034 -0.1737 -0.0675 -0.1339
    1W        W48727  24.011   8.862   1.019 -0.2111  0.0841 -0.2722
    1W        W48728  10.360   3.364   1.929 -0.1232  0.0909 -0.3303
    1W        W48729  12.906   1.540   1.914  0.0730 -0.2202  0.0523
    1W        W48730   5.809  14.423   5.739  0.1925  0.0100 -0.0306
    1W        W48731  22.993  26.798   2.206 -0.0174  0.0108  0.0436
    1W        W48732  26.586  29.557   8.043  0.1021 -0.1946 -0.1202
    1W        W48733   5.715   7.644   7.520 -0.0397  0.0493  0.0296
    1W        W48734  27.588  25.503   0.633 -0.1895  0.3388 -0.0360
    1W        W48735   7.428   2.286   0.652  0.1720 -0.1701 -0.2931
    1W        W48736   6.706  27.215   2.518 -0.2502  0.2177  0.2020
    1W        W48737   7.916   6.022   2.226 -0.2323 -0.0322 -0.3180
    1W        W48738   2.897  18.318   9.348  0.3445 -0.3135 -0.0973
    1W        W48739  24.005   2.647   3.847  0.1809  0.2316  0.0000
    1W        W48740  25.236  10.380   7.168  0.0121 -0.0465 -0.1539
    1W        W48741  10.113   1.087   9.162  0.3154 -0.1760 -0.3256
    1W        W48742   4.517   9.814   6.589  0.2466 -0.2782 -0.1519
    1W        W48743   2.143  26.864   8.039  0.0784 -0.3705 -0.0406
    1W        W48744  23.273  22.279   2.428 -0.4047 -0.2186 -0.1054
    1W        W48745   0.055   2.927   1.279  0.0243  0.0604 -0.1715
    1W        W48746   8.723  11.353   0.968  0.0620  0.3382 -0.1718
    1W        W48747  24.782   9.163   0.038  0.0565  0.1105  0.0980
    1W        W48748  14.304  25.178   2.897  0.1610 -0.2236 -0.0213
    1W        W48749  24.210  20.805   0.115 -0.1109 -0.2138 -0.0409
    1W        W48750  10.311   0.525   8.324 -0.0957 -0.2720  0.1453
    1W        W48751  15.567  22.451   2.356  0.0591 -0.1958 -0.1646
    1W        W48752  13.664  19.430   7.010 -0.1588 -0.0583  0.1129
    1W        W48753  10.278  14.972   0.300  0.1931  0.1104  0.0715
    1W        W48754   3.438  15.840   0.437  0.0124 -0.0289  0.2407
    1W        W48755  10.594   5.438   2.642 -0.0722 -0.1485 -0.0177
    1W        W48756  24.705  17.519   0.995 -0.3285 -0.0993  0.1597
    1W        W48757   5.323   5.019   2.235  0.0226 -0.0829  0.3199
    1W        W48758   1.917  13.729   7.066  0.2733  0.2709  0.0401
    1W        W48759  29.071   2.025   7.973  0.0500  0.3842  0.3440
    1W        W48760  22.417  29.735   1.115 -0.1544 -0.0696 -0.1010
    1W        W48761  12.575  11.246   1.435 -0.0381 -0.0899 -0.1566
    1W        W48762   1.228  21.959   7.653 -0.1445  0.1498 -0.0403
    1W        W48763  17.736  28.439   1.779  0.1434 -0.2070 -0.0318
    1W        W48764   4.298  12.056   8.702 -0.0656 -0.2156  0.4494
    1W        W48765  22.440  19.400   7.079 -0.0832  0.1878 -0.3915
    1W        W48766  18.365  23.755   0.894  0.0817  0.1419 -0.0135
    1W        W48767  19.664  19.157   9.431  0.1813  0.1044 -0.0651
    1W        W48768  17.985  13.878   1.885 -0.3632  0.0023 -0.1633
    1W        W48769  20.025  17.137   1.081 -0.1415 -0.0305 -0.1395
    1W        W48770  26.077  19.496   0.619 -0.4333 -0.3132  0.0609
    1W        W48771  29.039   2.951   0.002  0.1165  0.0368 -0.0457
    1W        W48772  10.663   8.247   6.996 -0.1782 -0.1068 -0.0339
    1W        W48773  13.966  23.038   8.404  0.0901  0.1621  0.0512
    1W        W48774  13.840   4.323   9.369 -0.0687 -0.0799  0.3093
    1W        W48775  26.790   6.111   2.534  0.1198  0.2446 -0.0025
    1W        W48776   1.916   8.545   2.704 -0.0002 -0.0905 -0.1019
    1W        W48777  12.184   4.481   2.182 -0.3412 -0.1408 -0.0509
    1W        W48778  27.218   4.622   7.154 -0.0019  0.0645 -0.2136
    1W        W48779  11.039  17.171   8.907 -0.0418 -0.1078 -0.0351
    1W        W48780  22.218  15.536   8.591 -0.0374  0.1859 -0.0314
    1W        W48781  11.860  28.468   3.683  0.2144 -0.1435 -0.4789
    1W        W48782  25.600   1.984   2.091 -0.1613 -0.1109  0.1565
    1W        W48783   1.940  13.710   0.231 -0.1116 -0.2117 -0.1122
    1W        W48784  21.003   4.050   2.552 -0.1985  0.3527 -0.3396
    1W        W48785  20.592   5.730   0.116 -0.2475  0.3598 -0.1456
    1W        W48786   5.799   4.259   9.383 -0.1117 -0.1097  0.0761
    1W        W48787  13.471  17.244   0.193 -0.0431  0.3695 -0.0662
    1W        W48788   8.658  29.537   3.054 -0.2540 -0.1200  0.1033
    1W        W48789   1.036   4.139   1.505  0.0636 -0.0485 -0.0313
    1W        W48790   7.581   0.287   7.430  0.0826  0.1304 -0.0527
    1W        W48791  24.856  10.339   0.332 -0.0090  0.1504 -0.1008
    1W        W48792  11.519  14.799   1.357 -0.0567 -0.1767 -0.0188
    1W        W48793  23.706  18.504   8.573 -0.1570 -0.0655  0.1424
    1W        W48794  29.607   7.643   0.413 -0.0402  0.0102  0.0569
    1W        W48795   9.222   3.015   0.094 -0.1443  0.0909 -0.3636
    1W        W48796   7.968  26.566   0.879 -0.0415 -0.1323  0.0655
    1W        W48797  12.020  20.688   6.700  0.0630 -0.0234 -0.3497
    1W        W48798   8.203  14.952   7.735  0.1400 -0.0947  0.1731
    1W        W48799  18.150  28.494   9.429  0.0929 -0.1239  0.1496
    1W        W48800  25.243   8.037   1.708  0.0482 -0.1248 -0.1933
    1W        W48801  11.918   5.979   3.028  0.0224 -0.2338  0.4149
    1W        W48802  21.267   2.797   8.120  0.1334  0.0025  0.3590
    1W        W48803  28.422   4.731   8.451  0.1083  0.0227  0.2930
    1W        W48804  28.391  15.898   7.817 -0.0360 -0.1541  0.0318
    1W        W48805   2.843  13.736   7.173 -0.2207 -0.1008 -0.1366
    1W        W48806  22.935  16.762   0.299  0.3457 -0.0640  0.5055
    1W        W48807  27.729  19.967   0.376 -0.0748 -0.1084  0.0643
    1W        W48808  14.491  20.750   9.080  0.1741  0.2310 -0.0811
    1W        W48809   3.732  14.672   0.915 -0.1627  0.1566  0.1534
    1W        W48810  18.660  27.731   8.237 -0.0492  0.0310  0.1541
    1W        W48811  26.811   8.511   1.849 -0.0267  0.2125  0.0100
    1W        W48812  20.007   8.729   6.883 -0.1459  0.0316  0.0338
    1W        W48813  12.435  13.119   8.234 -0.2155 -0.3045 -0.1309
    1W        W48814  14.513  27.339   3.347 -0.1534  0.1554  0.2376
    1W        W48815  17.489   3.521   6.947  0.0932  0.1490 -0.0929
    1W        W48816   2.751  18.072   1.266 -0.2842 -0.1738 -0.1704
    1W        W48817  10.744   3.352   2.247  0.2005 -0.1281  0.1168
    1W        W48818   2.597   8.026   7.600 -0.3640  0.0128 -0.1582
    1W        W48819  23.821   8.368   0.922  0.1519  0.3292  0.4230
    1W        W48820   9.908   3.473   1.770  0.1061  0.0193 -0.1564
    1W        W48821  11.135   1.260   0.414 -0.1715  0.1158 -0.2374
    1W        W48822   9.835   9.613   0.173  0.0982 -0.1453  0.1194
    1W        W48823   8.091   5.280   8.499  0.0031 -0.3204 -0.0133
    1W        W48824  12.293  16.909   7.522  0.2960  0.3307 -0.1478
    1W        W48825   9.349  29.489   0.254 -0.2474 -0.0434 -0.0570
    1W        W48826  13.237  23.158   9.054 -0.1179  0.1695 -0.1382
    1W        W48827  25.588  14.639   6.997  0.0592  0.0284  0.2108
    1W        W48828  22.512   9.010   6.539 -0.1150  0.0943  0.1474
    1W        W48829  26.486   9.339   6.907  0.0514 -0.3686  0.0203
    1W        W48830   5.138  26.142   7.572  0.0140 -0.1794 -0.0515
    1W        W48831  17.566   7.576   8.148  0.3525 -0.0530 -0.2939
    1W        W48832   7.135  18.684   7.667  0.0231 -0.0168 -0.0060
    1W        W48833  17.695  28.317   0.163  0.0161 -0.0622  0.0166
    1W        W48834   1.816  12.942   9.086 -0.0869 -0.0454 -0.0340
    1W        W48835   9.004   9.785   7.987 -0.0573 -0.0757  0.1135
    1W        W48836   2.477   6.579   0.078 -0.3174  0.0542 -0.1650
    1W        W48837  12.524   8.069   9.212 -0.0311  0.1849 -0.1031
    1W        W48838   4.767  15.779   8.559 -0.0465 -0.0520  0.1839
    1W        W48839  16.752   9.229   7.236  0.0406 -0.0587  0.0663
    1W        W48840  27.299  21.249   9.047 -0.1296  0.0052  0.0202
    1W        W48841  28.572   6.307   7.585 -0.3364  0.0118  0.3155
    1W        W48842   4.383  11.166   6.666  0.0289  0.0957 -0.0534
    1W        W48843  25.963  20.832   6.657  0.0130  0.1549 -0.0611
    1W        W48844  17.791   1.514   2.747  0.0468  0.3523  0.0990
    1W        W48845  12.491  16.049   9.422 -0.0864  0.3171 -0.3001
    1W        W48846  26.145  22.725   9.411  0.1913 -0.1141 -0.0294
    1W        W48847   6.318  17.441   8.067 -0.2931 -0.2262 -0.3233
    1W        W48848  28.221   9.652   9.445  0.1452  0.0561 -0.2219
    1W        W48849  12.534  16.796   1.600  0.2365 -0.0072  0.0501
    1W        W48850  10.133   5.084   8.804 -0.1458  0.0185  0.0653
    1W        W48851  27.588  16.340   6.091  0.1793 -0.0854  0.0844
    1W        W48852  15.159   8.769   7.982 -0.1510 -0.1548  0.2143
    1W        W48853  23.371  10.345   9.204 -0.0483  0.1838  0.0146
    1W        W48854   9.271  29.202   8.814 -0.1161  0.0408  0.0117
    1W        W48855  15.439   4.704   1.584 -0.1476 -0.1701  0.0284
    1W        W48856  29.536   9.930   7.432  0.0029  0.1532  0.2131
    1W        W48857  16.030  10.073   8.848  0.1021 -0.0209 -0.1472
    1W        W48858  17.731   2.947   1.698  0.2326  0.1100 -0.1228
    1W        W48859   3.964  16.706   6.328 -0.0614  0.1392  0.0884
    1W        W48860  21.583  11.890   7.018 -0.0453 -0.1739  0.1503
    1W        W48861  23.815   6.818   7.147 -0.2741  0.0195  0.0024
    1W        W48862  12.866   8.604   1.903 -0.2715  0.2271 -0.0385
    1W        W48863   7.332  10.390   0.570  0.0620  0.2133 -0.0598
    1W        W48864   0.352   1.636   1.274  0.0240 -0.1646  0.2469
    1W        W48865  21.856  28.683   9.079  0.3347  0.0586 -0.1837
    1W        W48866  14.709  27.260   8.831  0.1398 -0.3112  0.1877
    1W        W48867  16.901   5.176   1.784 -0.0675  0.1408 -0.1668
    1W        W48868   4.050  15.140   7.227  0.3119  0.0647  0.0614
    1W        W48869   7.016   7.202   7.982  0.0182 -0.1815 -0.0264
    1W        W48870  16.594  18.124   7.917 -0.1105 -0.2461 -0.2341
    1W        W48871  24.270   6.594   2.305 -0.0988  0.1251 -0.0422
    1W        W48872   6.502   0.237   1.155  0.2334  0.2830  0.0863
    1W        W48873  16.508  28.284   8.017 -0.1146  0.3182  0.2652
    1W        W48874   5.694  15.982   0.752 -0.0805 -0.2375 -0.1777
    1W        W48875  13.429  28.304   1.454  0.1644 -0.0719 -0.2498
    1W        W48876  27.501   7.946   8.636 -0.1980 -0.0297  0.4024
    1W        W48877   8.109  23.413   6.870  0.2155 -0.2172  0.1788
    1W        W48878   0.310  23.147   7.045  0.0627  0.0223 -0.1421
    1W        W48879  28.004  27.807   9.049  0.0739 -0.0558 -0.1333
    1W        W48880  27.794   9.803   8.439 -0.0418  0.1601  0.0332
    1W        W48881  17.990  25.473   0.606  0.1022  0.0619  0.0643
    1W        W48882   5.169  25.050   1.700  0.1354 -0.2627  0.0703
    1W        W48883  15.358  18.934   7.489  0.0437  0.2897  0.0699
    1W        W48884  26.709  21.949   0.539 -0.2974 -0.2461 -0.0120
    1W        W48885  28.163  10.261   9.216 -0.2174  0.0510  0.2143
    1W        W48886  17.878  12.250   0.259 -0.0570 -0.1504  0.3656
    1W        W48887  20.571  21.014   3.477 -0.1011  0.2002 -0.0285
    1W        W48888  24.035  11.249   8.578 -0.0345  0.3005  0.4151
    1W        W48889   3.872  10.136   2.283  0.3109 -0.1612  0.0609
    1W        W48890  15.013   4.177   3.641  0.3689  0.4021 -0.2727
    1W        W48891  23.156  11.874   1.735 -0.1223  0.2455  0.2029
    1W        W48892  22.732  22.096   8.952  0.1037 -0.1450  0.0469
    1W        W48893  13.657   5.992   2.587  0.0966  0.1623  0.1656
    1W        W48894  16.714  20.001   7.792 -0.2587  0.1685 -0.0351
    1W        W48895  14.782  28.026   7.760  0.1755  0.0003  0.0355
    1W        W48896   6.974  18.428   0.489 -0.0965 -0.1148  0.3900
    1W        W48897  11.045  22.061   9.402 -0.2485 -0.0188 -0.1521
    1W        W48898  13.873  11.594   7.158 -0.4135  0.1459 -0.1173
    1W        W48899   5.309  13.369   9.218  0.2604 -0.0272  0.3910
    1W        W48900  21.054  20.561   1.147  0.0812  0.2929 -0.2264
    1W        W48901   5.276   0.938   2.570 -0.4013  0.2133  0.0210
    1W        W48902  12.695  15.260   7.043 -0.0515  0.0605 -0.1110
    1W        W48903  27.501   2.651   0.427  0.0057  0.2125  0.3004
    1W        W48904   9.832   3.582   8.693  0.3106  0.0577  0.1237
    1W        W48905  25.570   7.304   2.938 -0.1000  0.0156 -0.0843
    1W        W48906  12.963  19.045   1.879  0.0121  0.1826  0.1161
    1W        W48907  28.957  22.215   6.472 -0.2432  0.1583  0.1455
    1W        W48908  10.433   0.665   7.827 -0.0882  0.3635  0.0635
    1W        W48909  24.903   6.244   0.885  0.2907  0.1803 -0.2775
    1W        W48910  21.761   4.273   9.257  0.0263  0.1201  0.1050
    1W        W48911  19.492   3.210   1.199 -0.1567  0.2316  0.0747
    1W        W48912  29.657  21.518   0.101  0.1163 -0.2967  0.1403
    1W        W48913  27.900  28.494   7.673 -0.0282  0.4632  0.1476
    1W        W48914  22.347   4.919   7.168 -0.0999  0.0133 -0.0667
    1W        W48915   0.064  17.547   8.547  0.1610  0.1245  0.2790
    1W        W48916  16.143  17.111   6.871  0.2786 -0.2123  0.1781
    1W        W48917   5.090  23.725   1.408  0.0373 -0.0343 -0.2424
    1W        W48918  24.279  14.310   1.184 -0.0506  0.0657 -0.1346
    1W        W48919  23.525  10.816   2.888 -0.0287 -0.0452  0.1637
    1W        W48920   6.642   4.745   1.110  0.2601  0.2859  0.0731
    1W        W48921  24.601  21.507   7.057  0.0152  0.1676  0.2366
    1W        W48922  19.596  24.570   0.580  0.0790  0.0602 -0.1544
    1W        W48923  12.449  27.378   1.262  0.2355  0.3247 -0.0265
    1W        W48924  17.847  14.082   7.172 -0.1185  0.0688 -0.1148
    1W        W48925  13.188   4.863   1.309 -0.1335 -0.1791 -0.1327
    1W        W48926  29.021  10.357   0.429 -0.1785  0.0894 -0.0205
    1W        W48927  20.327  16.064   8.754 -0.0958  0.0553 -0.2494
    1W        W48928   9.861  21.145   0.441  0.0453  0.1026 -0.1186
    1W        W48929  25.365   5.576   6.580 -0.1398  0.0375  0.2005
    1W        W48930   7.007  26.303   1.977  0.0074  0.1826 -0.1334
    1W        W48931  26.450  17.233   6.712  0.1065 -0.2263 -0.1336
    1W        W48932   7.029  12.116   1.303 -0.1411  0.0282  0.1023
    1W        W48933  15.272  15.886   0.428  0.1796 -0.3240  0.2165
    1W        W48934  26.029   0.586   2.760  0.0193 -0.0175  0.2012
    1W        W48935  12.441   7.606   2.530 -0.0786  0.0526 -0.1220
    1W        W48936  26.006  22.537   8.245  0.2804  0.0726 -0.0630
    1W        W48937  28.283   0.007   6.699  0.1193 -0.1504  0.0492
    1W        W48938  15.737   4.406   6.089  0.1254 -0.0973  0.0594
    1W        W48939  20.837   6.715   7.120  0.0367 -0.0040  0.1549
    1W        W48940  28.453   1.736   8.728  0.2512  0.2294  0.0477
    1W        W48941  18.384  10.846   0.412 -0.0935  0.3760  0.0120
    1W        W48942  29.335   3.201   8.078 -0.1877 -0.1488  0.1939
    1W        W48943  14.985  27.327   0.537  0.1657 -0.0324  0.0762
    1W        W48944   8.075  24.843   5.870  0.1855  0.1001  0.2496
    1W        W48945  15.111  11.874   8.816  0.0663 -0.1430 -0.0986
    1W        W48946   7.177   9.840   7.233 -0.4501  0.0117  0.0443
    1W        W48947  25.195   9.598   7.739  0.1586 -0.0227  0.0767
    1W        W48948  27.940  25.249   6.807  0.1221  0.0941 -0.0428
    1W        W48949  14.380  14.086   1.467  0.0054  0.3577  0.2826
    1W        W48950  26.020  10.764   6.572 -0.1362 -0.1482 -0.2823
    1W        W48951  27.057  25.282   3.173  0.2181  0.3862 -0.0418
    1W        W48952  27.880  28.167   9.357 -0.1618 -0.0008  0.0215
    1W        W48953  21.555  25.743   8.122  0.0844 -0.1729 -0.0811
    1W        W48954  11.456   1.161   8.611  0.0009 -0.1476  0.2101
    1W        W48955  23.545  27.762   7.175 -0.1334 -0.0166  0.0836
    1W        W48956   3.108   4.542   2.783  0.1619 -0.3844 -0.0788
    1W        W48957  22.015   1.605   6.723  0.0113  0.1020  0.0826
    1W        W48958  27.003   9.631   7.954  0.0978 -0.0129  0.1205
    1W        W48959   9.847   8.687   0.448  0.1582 -0.1749 -0.1701
    1W        W48960  23.334  16.348   7.786  0.1384  0.2413 -0.2658
    1W        W48961  20.670  13.533   0.176  0.1870 -0.1964  0.0723
    1W        W48962  10.020   7.686   0.821 -0.0087  0.1294  0.0787
    1W        W48963  21.700  10.669   7.184 -0.3802  0.3046 -0.2156
    1W        W48964  12.193   0.120   3.609  0.0551  0.0413 -0.0356
    1W        W48965  27.728  21.085   8.603  0.1079 -0.0330 -0.0394
    1W        W48966  14.664   0.709   9.048 -0.1300  0.3901  0.0038
    1W        W48967  28.424  25.338   9.011 -0.0785 -0.1885  0.1994
    1W        W48968  10.082  19.375   7.501 -0.0262  0.0811 -0.1806
    1W        W48969  28.298  15.811   2.450 -0.0360 -0.0429 -0.0251
    1W        W48970  12.627   6.201   8.067  0.1223 -0.1580  0.2030
    1W        W48971  20.822  21.641   1.867  0.3805  0.0431  0.0215
    1W        W48972  12.855   4.491   0.023 -0.0207 -0.1183 -0.0904
    1W        W48973   0.985  18.736   0.920  0.4303  0.1206 -0.2223
    1W        W48974   9.471  14.667   0.855 -0.1130 -0.1362 -0.2975
    1W        W48975  10.017  23.496   2.689  0.0875  0.1830 -0.0130
    1W        W48976  27.955  27.268   0.189 -0.2866  0.2961 -0.0605
    1W        W48977  15.326  21.190   8.516 -0.0802 -0.0324  0.4968
    1W        W48978   4.910  21.828   7.962  0.0953 -0.2105  0.2198
    1W        W48979  28.496   2.992   0.116 -0.0781 -0.0668 -0.1315
    1W        W48980  11.733   3.642   0.664 -0.1785  0.0203 -0.1144
    1W        W48981   4.822   6.752   1.370 -0.2557 -0.2344 -0.0867
    1W        W48982  28.488  27.388   1.074  0.0401  0.1014  0.0625
    1W        W48983  18.951  26.623   3.206 -0.0989 -0.2159 -0.0723
    1W        W48984  22.850  27.531   0.689 -0.2718  0.1371 -0.0505
    1W        W48985   3.864  11.811   9.026 -0.1382 -0.1697  0.1956
    1W        W48986  26.422  26.168   2.396 -0.0256  0.0617  0.0832
    1W        W48987  14.912  25.462   6.461  0.2406  0.0548 -0.1835
    1W        W48988  22.095  29.235   1.778 -0.2431  0.2788 -0.2345
    1W        W48989   0.091  21.376   7.173 -0.4735  0.2397  0.4910
    1W        W48990   4.405  22.713   9.163 -0.1054  0.0503  0.1680
    1W        W48991  16.093  19.421   7.895 -0.0868 -0.3968  0.0024
    1W        W48992  27.255   7.454   6.885  0.2609  0.0398  0.1264
    1W        W48993  17.057  12.712   2.000  0.1744  0.0035 -0.1316
    1W        W48994  23.244   6.273   1.781  0.3628  0.2320 -0.0562
    1W        W48995  17.347  27.135   7.373  0.2491 -0.0049 -0.2437
    1W        W48996   7.528  10.040   8.814 -0.0366 -0.1434 -0.2389
    1W        W48997  22.611  22.474   0.442  0.0504  0.2285 -0.1078
    1W        W48998   3.552  13.892   8.664 -0.1385  0.1921  0.0744
    1W        W48999  26.061   3.874   9.223  0.2209  0.1197 -0.2183
    1W        W49000  10.035  17.411   7.332 -0.0394 -0.0732  0.2753
    1W        W49001  25.816   1.499   3.178  0.2898  0.0209  0.3049
    1W        W49002   2.952  11.521   0.723 -0.0189 -0.0359  0.0220
    1W        W49003  28.209   1.086   2.874 -0.0048 -0.0647 -0.1689
    1W        W49004  20.630  28.841   9.336  0.0618 -0.0858 -0.2815
    1W        W49005  20.056  10.587   6.712  0.3602 -0.2982 -0.1908
    1W        W49006   3.930  22.601   6.189  0.0920 -0.0747 -0.1941
    1W        W49007   3.935  23.847   5.809  0.0253 -0.1007 -0.1595
    1W        W49008  12.897   5.281   3.434  0.0804  0.0643 -0.3026
    1W        W49009  27.010   4.167   6.722 -0.0103  0.2140 -0.0823
    1W        W49010  12.200   8.649   0.904 -0.2013  0.0940 -0.1633
    1W        W49011   6.088   0.571   1.969  0.0382 -0.2413  0.1821
    1W        W49012  21.610  24.304   2.915  0.1041  0.1156 -0.1816
    1W        W49013  12.991   6.516   1.680 -0.3478  0.1493 -0.1497
    1W        W49014  22.158   9.254   8.338  0.0361 -0.0581 -0.0276
    1W        W49015  21.092   9.970   2.465 -0.2677 -0.1147 -0.2201
    1W        W49016   9.254  28.543   2.286 -0.1672  0.0107  0.2022
    1W        W49017  22.421   7.316   2.305  0.3717 -0.1763  0.0457
    1W        W49018  25.698   0.127   2.697 -0.3476  0.3341  0.2710
    1W        W49019   1.965  12.170   7.561 -0.2975  0.0799  0.1763
    1W        W49020  19.893  18.567   8.672  0.0463  0.0613  0.0583
    1W        W49021  10.456  13.331   1.177 -0.2200 -0.1545 -0.0237
    1W        W49022  25.602   0.198   8.148  0.3093 -0.3572  0.1364
    1W        W49023  13.509  29.385   8.822 -0.0309  0.0669  0.0115
    1W        W49024  24.405   7.848   0.038 -0.2809 -0.0962  0.0564
    1W        W49025  28.593  24.601   6.915 -0.0882 -0.0867  0.1534
    1W        W49026  12.371   2.021   8.960  0.0848 -0.0392  0.1573
    1W        W49027  25.383   3.140   7.417 -0.0348  0.1961 -0.0050
    1W        W49028  16.425   8.071   1.001 -0.0896 -0.3294  0.0696
    1W        W49029  27.026   1.133   7.980 -0.0756  0.3599  0.1472
    1W        W49030   7.327  16.670   7.362 -0.1931  0.1485  0.0685
    1W        W49031  15.238   9.172   9.415  0.1648  0.3398 -0.3542
    1W        W49032   4.623  14.473   0.746  0.2987  0.0073 -0.1378
    1W        W49033  18.019   8.120   2.047  0.0631  0.0478  0.0827
    1W        W49034   9.226  18.766   7.324 -0.1819  0.1647  0.1327
    1W        W49035  20.166  11.679   9.288  0.3662  0.0480 -0.0134
    1W        W49036  16.695   1.644   8.260 -0.1521  0.2019 -0.0557
    1W        W49037   9.691  25.250   8.731  0.0189  0.1211 -0.1438
    1W        W49038  26.924  24.834   1.604 -0.0584  0.2531 -0.0762
    1W        W49039  21.680  14.243   8.769  0.1513  0.0215 -0.0473
    1W        W49040  22.237   6.458   1.338  0.0698  0.0375  0.3071
    1W        W49041   6.755  29.801   9.360  0.2944 -0.0287 -0.2794
    1W        W49042  10.552   1.701   2.680 -0.2015 -0.0913 -0.0174
    1W        W49043  23.861  14.185   7.128  0.0053 -0.2092  0.3898
    1W        W49044  24.113  18.763   8.444 -0.0873  0.1572 -0.0213
    1W        W49045  21.888  16.919   9.162 -0.3064  0.2558 -0.1377
    1W        W49046  13.264  28.930   8.691 -0.2215  0.1363  0.2315
    1W        W49047  17.578   5.752   1.045 -0.0927 -0.1722 -0.0070
    1W        W49048  20.298   0.483   1.338  0.0267 -0.0879  0.1169
    1W        W49049   6.416   4.522   1.530  0.0806 -0.3195  0.0627
    1W        W49050  28.102  18.157   7.424 -0.0013 -0.0518 -0.0450
    1W        W49051  21.036  24.502   7.490  0.0668  0.0993  0.0819
    1W        W49052   1.484  23.322   7.882  0.1113 -0.0140 -0.0659
    1W        W49053  16.198  19.815   8.296  0.1307 -0.2698 -0.1595
    1W        W49054  27.883  13.555   9.387  0.2884 -0.0408 -0.0757
    1W        W49055   1.428  13.939   0.103 -0.2733  0.2455 -0.3563
    1W        W49056   7.692  17.848   9.429 -0.3868  0.0203  0.1021
    1W        W49057   2.113  11.434   1.108  0.3823 -0.0725 -0.0483
    1W        W49058  12.430   5.741   1.152  0.1312 -0.2441 -0.0370
    1W        W49059   5.735  15.455   0.448 -0.0451 -0.1291  0.2196
    1W        W49060  13.347  10.923   0.780 -0.1879 -0.0376  0.0386
    1W        W49061  13.212  20.391   2.334  0.1683 -0.0288 -0.1028
    1W        W49062  21.824  14.329   9.345  0.2716  0.0395  0.0387
    1W        W49063   3.641   3.548   0.840 -0.0764 -0.0158  0.1036
    1W        W49064  29.780  21.045   0.018 -0.0089 -0.1643 -0.1007
    1W        W49065  24.723   3.624   7.657  0.3509  0.1625 -0.1742
    1W        W49066  12.009  29.116   8.436 -0.0737  0.2243 -0.1025
    1W        W49067   7.153  23.111   0.637 -0.0321  0.0062 -0.1498
    1W        W49068   7.880  12.970   1.461 -0.0156 -0.2691 -0.1326
    1W        W49069   5.357  28.792   0.463  0.0210 -0.1875  0.0193
    1W        W49070  25.351  29.519   2.820 -0.2127  0.0282  0.1771
    1W        W49071   9.182  19.395   7.721 -0.0795  0.0970 -0.0586
    1W        W49072   8.192  14.228   1.541 -0.0463 -0.1001 -0.0203
    1W        W49073   6.804  26.790   7.826  0.1567  0.1509 -0.1772
    1W        W49074  17.768  22.942   2.990  0.2436 -0.0632  0.1694
    1W        W49075   4.638  27.595   7.811  0.1466  0.3879  0.2269
    1W        W49076  13.040  26.721   7.063 -0.1486  0.0172  0.0918
    1W        W49077   9.012  18.757   8.641 -0.1559 -0.0501  0.0932
    1W        W49078  27.019  21.274   8.624  0.0546  0.0099 -0.1273
    1W        W49079   9.308  18.461   6.445  0.1064  0.0493 -0.2400
    1W        W49080  25.710   5.649   7.900  0.3365  0.4584  0.0150
    1W        W49081  10.882   4.230   7.035  0.0846 -0.0633 -0.0275
    1W        W49082  10.612  16.595   7.875  0.0987  0.1875  0.2699
    1W        W49083   6.967  22.317   6.158 -0.0998  0.0937  0.0402
    1W        W49084  28.899  21.761   0.385 -0.0526  0.0441 -0.0114
    1W        W49085  26.091   3.585   2.985 -0.0816  0.0040  0.0259
    1W        W49086  13.743   2.254   8.235  0.0807  0.0285  0.1237
    1W        W49087   4.232  22.374   1.294  0.1771 -0.4144  0.1049
    1W        W49088   9.622  19.867   9.430  0.2415 -0.1631  0.1704
    1W        W49089  23.650  27.335   8.744  0.3905 -0.0016 -0.1398
    1W        W49090  27.784   3.017   3.319 -0.0639 -0.1257 -0.5017
    1W        W49091  25.238  18.560   8.637 -0.3331 -0.1036  0.0837
    1W        W49092   6.206  24.666   6.271 -0.0804 -0.1183  0.3847
    1W        W49093  27.022  13.436   2.815  0.1756 -0.0608 -0.0050
    1W        W49094  28.419   8.759   9.150  0.1398  0.4142  0.1775
    1W        W49095  29.760  28.247   2.207  0.1233 -0.1811  0.1341
    1W        W49096  24.681  20.355   6.749 -0.1050 -0.0452 -0.1367
    1W        W49097  13.242   6.357   9.150  0.0065  0.1203 -0.1304
    1W        W49098  17.195  28.564   1.798  0.2126 -0.2173  0.2385
    1W        W49099   5.264  27.012   6.999 -0.2644  0.2657 -0.1456
    1W        W49100  27.623   7.493   1.050  0.4055  0.2277 -0.0329
    1W        W49101  26.296  22.770   6.643 -0.0864 -0.1406  0.0288
    1W        W49102  21.767  14.963   7.044  0.1253 -0.2230  0.0990
    1W        W49103   7.595  11.412   2.947  0.2475  0.2984  0.1613
    1W        W49104  25.796  21.686   8.597 -0.1916 -0.0773  0.0413
    1W        W49105  11.895   3.739   7.772 -0.0555 -0.0926 -0.0452
    1W        W49106   4.685   2.690   7.609  0.0909  0.0274  0.2648
    1W        W49107   1.820  17.947   6.324 -0.0742  0.0340 -0.3977
    1W        W49108   1.365   1.007   2.485  0.0886 -0.1210 -0.0566
    1W        W49109   5.113   7.965   2.301  0.2819  0.0204 -0.1100
    1W        W49110  10.060  24.800   7.787 -0.0055  0.1927  0.3461
    1W        W49111  18.227   5.496   2.336  0.0147 -0.0484 -0.1325
    1W        W49112   8.865  21.490   8.356  0.0899 -0.1370 -0.3379
    1W        W49113  20.312  20.271   2.510 -0.0886  0.3206  0.0186
    1W        W49114  29.678  26.366   1.331 -0.1445  0.0435 -0.0417
    1W        W49115  24.474  11.404   8.390  0.1141  0.3530 -0.0711
    1W        W49116  22.320  13.408   6.099  0.3466  0.0721 -0.0191
    1W        W49117  10.371   9.538   0.781 -0.0373 -0.2633  0.0517
    1W        W49118   9.488  28.710   2.701 -0.4481  0.3125  0.2503
    1W        W49119  25.943  19.982   0.362 -0.0186  0.0716 -0.3599
    1W        W49120   2.319   9.121   0.174 -0.2034  0.1410 -0.0983
    1W        W49121   5.443   3.475   9.249  0.4178 -0.1717 -0.0809
    1W        W49122   6.246   9.982   2.670  0.0183  0.1180  0.5219
    1W        W49123  11.193  11.093   8.517 -0.1074  0.1174  0.3198
    1W        W49124   7.893  13.546   7.042  0.0474 -0.2262  0.2035
    1W        W49125  20.285   9.684   8.824  0.0808 -0.0186  0.1239
    1W        W49126  14.927   7.780   7.571  0.0069 -0.0812  0.1297
    1W        W49127   0.575  13.376   8.350  0.0294 -0.0094  0.0995
    1W        W49128  29.702  27.409   2.851 -0.1347 -0.1981  0.1985
    1W        W49129  12.901   5.760   0.912  0.0574  0.1334  0.0507
    1W        W49130  14.250   2.695   7.953 -0.0548 -0.1818 -0.0186
    1W        W49131   5.929  16.342   8.736 -0.1722 -0.0862  0.2311
    1W        W49132  21.832  11.629   7.506 -0.1125  0.0113 -0.0956
    1W        W49133  14.344  12.430   8.935  0.0092 -0.2152  0.0831
    1W        W49134  24.015   1.810   9.231  0.0358 -0.1373 -0.0626
    1W        W49135  18.483  18.571   2.174  0.0117  0.0137 -0.1219
    1W        W49136  27.386   3.245   0.873  0.0106  0.0703  0.0526
    1W        W49137  11.400   0.908   9.095  0.1911  0.0596 -0.1542
    1W        W49138  26.792  26.154   2.919  0.2335 -0.0878 -0.1377
    1W        W49139  12.118  12.488   1.714 -0.0191 -0.1241  0.1172
    1W        W49140  17.084   8.127   2.379 -0.0587 -0.2282 -0.2405
    1W        W49141   8.444  28.325   8.220  0.0798  0.0004 -0.2530
    1W        W49142  18.838  25.246   1.252 -0.2001 -0.1208 -0.3758
    1W        W49143  11.624   7.225   7.698  0.2139  0.1701  0.1983
    1W        W49144  17.530   7.143   0.751  0.1771 -0.0285 -0.1780
    1W        W49145  29.336  18.770   0.244 -0.1744 -0.0913 -0.0875
    1W        W49146  16.260   4.028   8.004  0.0283  0.1899 -0.2516
    1W        W49147  21.741  22.486   8.319  0.2778  0.2829 -0.1803
    1W        W49148  10.642  27.412   9.251  0.1468  0.2516 -0.0114
    1W        W49149  22.482  22.441   8.670  0.3104  0.2683  0.0675
    1W        W49150  19.319  10.648   1.660  0.0791  0.3027 -0.4907
    1W        W49151  11.441  12.334   1.080  0.1659 -0.0720 -0.1226
    1W        W49152  19.603  11.661   7.569  0.0056 -0.1165  0.0917
    1W        W49153  26.782  12.446   9.436  0.3182 -0.2627  0.1005
    1W        W49154  22.749   4.820   7.494 -0.1901 -0.0821  0.0800
    1W        W49155  27.007   7.646   1.151 -0.0640 -0.0342 -0.0809
    1W        W49156   2.111   0.021   6.600  0.0891 -0.0370  0.3582
    1W        W49157   0.258  23.021   6.013 -0.2271 -0.4075  0.1957
    1W        W49158  11.644   8.087   7.808  0.3407 -0.0433 -0.2527
    1W        W49159   2.915  26.949   8.693 -0.1154 -0.4134 -0.1953
    1W        W49160  18.508   1.426   1.269 -0.0964 -0.0706  0.0153
    1W        W49161  28.273  18.901   8.951 -0.0506  0.1589  0.2857
    1W        W49162   1.240  27.443   9.172  0.0232  0.0789  0.0649
    1W        W49163  20.231  16.646   8.849  0.1983 -0.1788  0.0846
    1W        W49164   1.305  27.601   1.081  0.0161  0.1271 -0.1906
    1W        W49165   5.625  17.609   1.104  0.0258 -0.0438  0.2409
    1W        W49166  26.509   8.948   1.846  0.1993  0.1988  0.1477
    1W        W49167   3.190  21.117   2.162  0.0796 -0.1413 -0.0762
    1W        W49168  16.085  23.958   2.110 -0.0276  0.0051 -0.0628
    1W        W49169   9.128  11.186   2.069  0.1967 -0.1184  0.0321
    1W        W49170  26.294  17.908   6.852  0.0275  0.1434  0.2298
    1W        W49171  28.595  15.594   2.124 -0.2966  0.2619  0.1851
    1W        W49172   8.398  24.423   5.830 -0.1331  0.0285 -0.0188
    1W        W49173  27.170  21.806   8.810 -0.0075  0.1735 -0.3964
    1W        W49174  25.925  12.404   8.728  0.2466  0.1790 -0.0781
    1W        W49175  25.683   9.077   1.392  0.2184  0.2976 -0.2121
    1W        W49176   7.733  22.147   0.095 -0.3146 -0.0399  0.3375
    1W        W49177  11.763  26.457   7.404  0.1571 -0.1477  0.1470
    1W        W49178   9.462   0.150   8.754 -0.5390 -0.1688  0.1787
    1W        W49179  13.254  24.404   7.329  0.2122  0.0318  0.0582
    1W        W49180   5.083  21.113   1.108 -0.0456 -0.2332 -0.1231
    1W        W49181  20.453   7.796   0.883 -0.0069  0.0384 -0.3194
    1W        W49182  27.519  19.246   2.299  0.1545  0.3713 -0.0741
    1W        W49183  14.279  24.513   1.374 -0.0219 -0.0455  0.0443
    1W        W49184  11.805   4.079   0.439 -0.1152  0.1071  0.1600
    1W        W49185   5.072   2.413   1.127  0.2857  0.1794 -0.3728
    1W        W49186  12.931  21.201   7.072  0.0198  0.1237 -0.2537
    1W        W49187   6.810  15.180   8.802 -0.0885  0.0965 -0.0329
    1W        W49188  18.385   2.519   1.579 -0.2197  0.1038  0.5078
    1W        W49189   9.285   9.544   7.599  0.1721 -0.1568 -0.0962
    1W        W49190  28.958  18.794   6.637 -0.3795 -0.1164  0.3669
    1W        W49191  18.485   3.455   8.989 -0.3172  0.3922 -0.0611
    1W        W49192  17.115  20.338   2.606  0.1305 -0.1994  0.1221
    1W        W49193  28.446   3.460   2.943  0.1726  0.0072 -0.1436
    1W        W49194  20.439  10.111   7.501 -0.1862  0.0566  0.0978
    1W        W49195  20.536   5.791   1.812  0.2700 -0.0263 -0.2235
    1W        W49196  20.731   6.528   8.283  0.1464  0.0138  0.3283
    1W        W49197  17.914  19.963   2.307  0.0872  0.0675  0.2398
    1W        W49198  21.667   3.862   7.370  0.1671  0.1646 -0.4497
    1W        W49199   7.267   0.683   8.017 -0.0048  0.0148  0.3312
    1W        W49200   6.671  12.654   6.689 -0.4363  0.0389 -0.1839
    1W        W49201   4.499  18.369   6.513  0.0051  0.0734  0.0118
    1W        W49202   1.841  13.589   8.342  0.1856 -0.0885  0.0228
    1W        W49203  27.383   6.950   8.542 -0.3044  0.0283 -0.0050
    1W        W49204  25.441   7.390   8.800 -0.0287  0.0905 -0.0049
    1W        W49205  10.961  12.087   9.273  0.1265 -0.0637  0.0054
    1W        W49206  26.054   4.607   2.657  0.0144  0.0270 -0.0521
    1W        W49207  24.482  29.295   2.873 -0.0637  0.2172  0.4694
    1W        W49208  14.666  22.370   2.677 -0.0771  0.0014 -0.0733
    1W        W49209  18.666  12.448   8.346  0.1085 -0.0946 -0.4863
    1W        W49210  23.899  22.800   1.764 -0.0182  0.1042  0.0364
    1W        W49211  29.419  27.623   7.846  0.0365 -0.0989 -0.0836
    1W        W49212  10.068  27.179   7.668  0.1480 -0.1579  0.0568
    1W        W49213  22.477  23.489   2.795 -0.0702  0.0199  0.2971
    1W        W49214   8.365  15.702   0.451 -0.0039 -0.1605 -0.0818
    1W        W49215   6.775   6.557   0.812  0.1508  0.0772  0.1323
    1W        W49216   6.468  17.192   6.392 -0.1076  0.3451  0.0866
    1W        W49217  21.340   0.914   1.851  0.1282  0.1977 -0.0171
    1W        W49218  22.304  27.124   9.375  0.1717 -0.1792 -0.0535
    1W        W49219   3.171  23.946   8.109 -0.0215  0.0081  0.0442
    1W        W49220   9.490   6.049   2.365  0.2402 -0.1325  0.0741
    1W        W49221   0.611   1.497   9.338 -0.0512 -0.0656  0.2177
    1W        W49222  14.535  15.715   7.385  0.3317  0.2596 -0.0283
    1W        W49223   3.012   6.673   0.563  0.0010  0.0380  0.1126
    1W        W49224  17.377   7.185   7.711  0.3950  0.1857 -0.1140
    1W        W49225  13.315  16.385   8.754 -0.0300  0.0275 -0.1868
    1W        W49226  13.046   4.158   0.489 -0.1054 -0.0008 -0.0819
    1W        W49227  22.928  24.636   0.299  0.2586 -0.0173 -0.0770
    1W        W49228  27.228  28.374   8.678 -0.0089 -0.1105 -0.2113
    1W        W49229   0.441  18.650   7.459  0.0673  0.0116 -0.3295
    1W        W49230   7.904   7.058   1.181  0.1786 -0.1871  0.0150
    1W        W49231   1.628  14.712   9.015 -0.3046 -0.0006 -0.1144
    1W        W49232   5.378   3.754   1.859 -0.0549 -0.0823 -0.1338
    1W        W49233  28.469  19.474   2.391  0.1792 -0.1585  0.0512
    1W        W49234  27.860  17.826   0.660 -0.0283 -0.0532 -0.2479
    1W        W49235   3.858   6.630   2.799 -0.0241  0.0548 -0.2970
    1W        W49236  14.701  13.647   1.686  0.1588  0.1976 -0.1042
    1W        W49237  28.944  17.258   7.822  0.2793  0.0513 -0.0999
    1W        W49238  28.105   5.727   1.000 -0.1490 -0.0954  0.1211
    1W        W49239  11.648  22.891   7.378  0.0719  0.0250 -0.0129
    1W        W49240   1.465  10.030   2.028 -0.1332  0.3239  0.1188
    1W        W49241   7.114   7.418   2.263  0.0523 -0.1469  0.0974
    1W        W49242  11.435  14.599   8.647  0.1912 -0.2601 -0.2108
    1W        W49243  17.840   4.189   0.054 -0.0598  0.2714  0.1734
    1W        W49244  11.297  20.125   6.683  0.0300  0.1246 -0.0711
    1W        W49245  24.840  27.322   8.009 -0.0215 -0.2406 -0.1037
    1W        W49246  22.041   3.925   6.970 -0.1319 -0.0368  0.0472
    1W        W49247  23.826   4.659   8.139  0.2549 -0.1866  0.0017
    1W        W49248  23.947  18.376   6.611 -0.1401 -0.0054  0.0048
    1W        W49249  13.755   1.499   1.024  0.0069  0.0319 -0.0147
    1W        W49250   6.580  27.103   1.552 -0.3651 -0.3223  0.0280
    1W        W49251  27.515  28.292   1.343 -0.0077  0.0715  0.1402
    1W        W49252  29.072   3.790   9.101 -0.2205 -0.0226  0.0643
    1W        W49253   1.036  13.036   8.448 -0.3034 -0.4470 -0.1467
    1W        W49254  14.536  12.294   1.009  0.0679  0.3619 -0.0255
    1W        W49255  28.782  16.711   5.987  0.2133  0.1081 -0.1373
    1W        W49256  13.963  23.492   1.465  0.5881 -0.2420  0.4108
    1W        W49257  29.285  17.065   0.389  0.1596 -0.0722  0.1435
    1W        W49258  25.460   1.247   7.495 -0.1041  0.0147 -0.1516
    1W        W49259  14.345  27.802   8.096  0.0213  0.1766  0.4852
    1W        W49260  19.309  14.692   8.026  0.1113 -0.0315 -0.1749
    1W        W49261   3.955  27.810   6.968  0.1664  0.1191  0.0285
    1W        W49262  10.664  17.653   8.047  0.1474  0.0150  0.0104
    1W        W49263  29.454  21.302   6.584  0.0103 -0.0296  0.1645
    1W        W49264  21.790  21.906   1.775 -0.0136  0.1504  0.1018
    1W        W49265  28.217  15.103   6.504  0.0746 -0.1799 -0.1290
    1W        W49266  25.791  19.843   0.837 -0.3217  0.1621  0.1982
    1W        W49267  13.347  24.219   6.369  0.4258  0.2564 -0.0067
    1W        W49268   3.495  16.987   1.761  0.3623  0.1824  0.1355
    1W        W49269  19.437   7.904   7.344 -0.0306 -0.0764  0.0712
    1W        W49270  13.992  11.887   1.586 -0.1895  0.0320 -0.0108
    1W        W49271  12.480   6.704   8.084 -0.1845  0.0297  0.0973
    1W        W49272   8.504   9.715   2.898 -0.1554  0.2225 -0.1070
    1W        W49273   9.596   2.681   0.343 -0.0104  0.1283  0.0380
    1W        W49274   4.879   3.552   7.669 -0.1011 -0.2253 -0.3222
    1W        W49275  16.011  25.429   0.594 -0.1733  0.0854  0.1199
    1W        W49276   1.910  10.965   1.970  0.0555  0.3807 -0.0344
    1W        W49277  26.302   8.484   7.385  0.1405  0.3827 -0.2263
    1W        W49278  28.511  16.387   0.714 -0.1629  0.3097  0.0227
    1W        W49279   1.031   0.757   0.741  0.3457  0.2826 -0.1705
    1W        W49280  28.194   6.363   7.019  0.0506  0.0112 -0.0307
    1W        W49281   8.252   0.653   2.039 -0.1033 -0.0877 -0.0910
    1W        W49282  23.073   5.982   8.848  0.1868  0.0118 -0.0574
    1W        W49283   2.922  10.703   2.602 -0.0259 -0.0316  0.0759
    1W        W49284  26.462   9.771   0.241  0.1426 -0.0333 -0.3025
    1W        W49285  12.398  19.774   1.111  0.0624  0.2571 -0.3095
    1W        W49286  24.713   9.249   2.523 -0.0053  0.1229 -0.0148
    1W        W49287   6.546  25.638   1.804  0.0224 -0.1142  0.2047
    1W        W49288   8.959  25.851   9.241  0.2440  0.1265  0.3085
    1W        W49289  18.449  25.577   8.658 -0.0646 -0.1497  0.1549
    1W        W49290   3.895  10.940   7.957  0.2174 -0.1730 -0.0636
    1W        W49291   6.402  24.442   0.465  0.3089  0.2129 -0.1147
    1W        W49292   1.044  28.371   1.264 -0.0691  0.0692 -0.2082
    1W        W49293  26.467  10.824   7.414 -0.2309  0.0546  0.0023
    1W        W49294   5.189  26.745   2.088  0.3753  0.2055 -0.2063
    1W        W49295  27.734  14.549   7.157  0.2831  0.1257 -0.1042
    1W        W49296   5.574   7.465   6.701  0.1482 -0.0945 -0.0979
    1W        W49297  11.445  25.473   6.076  0.1165 -0.0991  0.1652
    1W        W49298  15.276  24.504   7.903 -0.3600  0.3202 -0.3494
    1W        W49299  13.612   1.414   2.247 -0.1691  0.3408  0.0687
    1W        W49300   5.840  18.089   7.275  0.2314  0.1572  0.2699
    1W        W49301  25.264  12.816   1.794  0.0424  0.1698  0.0050
    1W        W49302  23.888  27.461   7.778  0.2509  0.1395  0.0918
    1W        W49303  12.269  26.942   1.623 -0.1282 -0.2078  0.2906
    1W        W49304   1.872  18.078   2.557  0.2907  0.0197 -0.0292
    1W        W49305   3.513   4.843   7.698 -0.1421 -0.0321  0.1783
    1W        W49306  21.641   3.716   8.401 -0.1182 -0.0447  0.0896
    1W        W49307  28.379  28.661   7.444 -0.2551 -0.1861  0.2488
    1W        W49308  28.225   9.044   8.513 -0.2883 -0.0342  0.0514
    1W        W49309   2.940  10.797   1.641  0.0509  0.1323 -0.0777
    1W        W49310   1.471   2.578   0.061  0.0378 -0.1029  0.0353
    1W        W49311  26.102   0.391   1.911 -0.0825 -0.1380  0.0713
    1W        W49312  24.494  10.561   8.364 -0.3474  0.2537  0.0831
    1W        W49313  16.621   9.547   6.522  0.1200  0.2739  0.0239
    1W        W49314   5.279   0.526   6.904  0.2536 -0.0876  0.0903
    1W        W49315  12.046   4.063   1.905  0.1855 -0.0035  0.1046
    1W        W49316  23.778  25.299   1.351 -0.3822 -0.0172 -0.1556
    1W        W49317  17.145  25.034   7.722 -0.1879  0.1302  0.1413
    1W        W49318  19.270  24.871   0.011  0.1025  0.1743 -0.0483
    1W        W49319   1.122   6.458   8.102 -0.1910 -0.1060 -0.1682
    1W        W49320  19.263  20.995   7.753 -0.0092  0.4267  0.0494
    1W        W49321  12.731   7.202   2.315 -0.2682  0.1047  0.0951
    1W        W49322   5.609  19.350   1.204  0.0912  0.1655  0.1374
    1W        W49323   0.875  15.862   0.788 -0.2044 -0.2173 -0.3977
    1W        W49324  17.596  27.198   6.878  0.2519 -0.0714  0.1034
    1W        W49325   7.024  15.555   9.135 -0.0480  0.1018 -0.3442
    1W        W49326   4.703  15.926   8.081  0.1965  0.1271  0.0554
    1W        W49327  16.724  22.684   9.204  0.1883  0.2603  0.3436
    1W        W49328  11.815  24.616   8.723 -0.2066  0.0436  0.0333
    1W        W49329  24.532  25.216   8.565 -0.0569  0.0678 -0.1679
    1W        W49330  25.869   2.030   3.036 -0.2358 -0.1422 -0.1094
    1W        W49331  14.185  29.335   7.633 -0.1138 -0.1157 -0.0571
    1W        W49332  22.440   3.941   8.607 -0.0018 -0.0662  0.4895
    1W        W49333  24.549  13.518   8.052 -0.0405  0.0950 -0.0188
    1W        W49334   1.106  10.684   7.319 -0.1239 -0.4557 -0.0717
    1W        W49335   6.183  29.605   0.232  0.1790  0.0420  0.0416
    1W        W49336   1.778   6.201   8.927 -0.1083  0.1070 -0.0301
    1W        W49337  29.661  20.488   7.208  0.0272  0.0243  0.1803
    1W        W49338  15.040  21.137   0.074  0.2047 -0.2615  0.1023
    1W        W49339  17.506  15.154   7.613  0.0695  0.1369  0.2668
    1W        W49340  21.264  22.268   2.655  0.0397  0.0340 -0.2617
    1W        W49341  14.632   4.201   1.463 -0.1641 -0.1208  0.0762
    1W        W49342  11.125  22.812   7.166  0.2744 -0.1157 -0.0215
    1W        W49343  22.909  19.293   9.010 -0.2593 -0.1386 -0.2831
    1W        W49344  21.439  16.778   0.116  0.1829 -0.3406 -0.2374
    1W        W49345  16.804  16.408   0.859  0.1102  0.2682  0.2261
    1W        W49346  19.841  16.666   1.832 -0.0196  0.0561  0.1785
    1W        W49347   6.852   9.953   0.132  0.0210  0.0672 -0.0345
    1W        W49348  17.858   3.256   8.581 -0.0454 -0.1445  0.0307
    1W        W49349   8.310   2.427   3.813 -0.0155  0.1009 -0.2707
    1W        W49350  25.833  11.112   0.607 -0.0743  0.3115 -0.1890
    1W        W49351  15.881   5.403   7.218  0.0704  0.3918 -0.1670
    1W        W49352  26.711  15.514   1.063  0.1305 -0.2631 -0.0066
    1W        W49353  17.539   9.851   8.100 -0.0071 -0.2280  0.0830
    1W        W49354  10.901  12.408   7.637 -0.1568  0.2423 -0.0422
    1W        W49355  19.351  28.171   1.049  0.3480 -0.0568  0.1711
    1W        W49356  15.531   2.184   1.825  0.1832 -0.1066 -0.2233
    1W        W49357  21.170  11.852   1.104  0.1982 -0.0360  0.0533
    1W        W49358   1.186  16.672   0.920 -0.0350 -0.0975 -0.0357
    1W        W49359   8.356  11.257   7.751 -0.1127 -0.1812  0.0246
    1W        W49360  17.456   2.989   7.652  0.1901  0.2582 -0.0992
    1W        W49361   1.926  28.767   7.189 -0.1347  0.1640  0.0078
    1W        W49362   4.103  17.383   8.593  0.1224 -0.2170 -0.0270
    1W        W49363  27.480  10.124   0.956  0.0809 -0.0835 -0.0741
    1W        W49364  19.402  11.926   1.194  0.1264  0.1272  0.0890
    1W        W49365  18.099  19.148   7.555 -0.1471 -0.0687  0.0906
    1W        W49366  15.296  24.368   2.362 -0.1213 -0.0049  0.0795
    1W        W49367   6.831  15.497   7.806 -0.0081  0.1612  0.1572
    1W        W49368   6.094  12.252   8.747 -0.2598 -0.0298 -0.1923
    1W        W49369  27.655   8.373   7.252  0.0969 -0.0442 -0.3896
    1W        W49370  21.994  12.518   6.125 -0.1596  0.2997 -0.2148
    1W        W49371  24.792  19.010   2.644  0.1567  0.2281 -0.0759
    1W        W49372   0.176   0.362   1.209  0.3003  0.1984  0.2357
    1W        W49373  16.766   2.359   7.356 -0.2041  0.1317  0.0190
    1W        W49374  16.092   4.353   9.291 -0.1206  0.1292  0.1702
    1W        W49375  20.707  20.852   8.077 -0.3520  0.1650  0.4516
    1W        W49376  27.379   9.681   8.766  0.0444 -0.2423  0.1025
    1W        W49377  25.201  12.630   7.124 -0.0044  0.5407  0.0393
    1W        W49378  14.454   0.526   8.478 -0.0234  0.2676  0.3876
    1W        W49379   7.608  28.270   0.949 -0.1998  0.0300 -0.1400
    1W        W49380  11.566  19.211   7.955 -0.2003 -0.2471  0.1602
    1W        W49381  27.507  24.190   7.567  0.1534  0.3098 -0.2349
    1W        W49382  18.636   1.856   9.277 -0.0409 -0.1830 -0.1105
    1W        W49383   0.427  15.561   0.056 -0.0842  0.1375 -0.0890
    1W        W49384   2.514  29.393   1.562  0.1877  0.2827 -0.0052
    1W        W49385  26.124   4.591   2.098 -0.2271 -0.1562 -0.1322
    1W        W49386  10.981   3.030   3.066 -0.0905 -0.0935  0.3950
    1W        W49387   2.246  20.941   7.241  0.1317 -0.1873 -0.0612
    1W        W49388   0.181   5.106   8.244  0.0956 -0.0081 -0.0364
    1W        W49389  28.863  19.574   1.651 -0.2840 -0.0560  0.0870
    1W        W49390   5.172  29.726   8.787  0.1024 -0.1464 -0.0211
    1W        W49391  20.419   4.235   9.166 -0.0258  0.0108 -0.0498
    1W        W49392  10.043   7.073   7.789 -0.0098 -0.0230  0.1731
    1W        W49393   4.613   6.771   7.661  0.0912  0.1240  0.3394
    1W        W49394  29.664   8.038   0.048 -0.0290 -0.1600  0.2403
    1W        W49395   1.297   9.266   2.720  0.3470 -0.1324  0.0696
    1W        W49396   8.911   1.715   1.706  0.0988 -0.0978  0.0194
    1W        W49397  23.999   3.374   8.566  0.0734  0.3083  0.3618
    1W        W49398  20.170  10.388   7.943  0.1608  0.0796 -0.0947
    1W        W49399  27.268   8.247   7.705  0.3017 -0.0190 -0.3415
    1W        W49400  26.038  16.404   9.041 -0.2661  0.2321 -0.0228
    1W        W49401   7.352  15.777   8.782 -0.0249 -0.1446  0.1720
    1W        W49402   6.899  13.182   1.639  0.0468  0.1305  0.1556
    1W        W49403  25.467  22.116   7.876 -0.0029 -0.0327  0.1211
    1W        W49404   7.377  16.058   6.875 -0.3628  0.0103  0.1587
    1W        W49405   4.678  12.689   2.294 -0.0184  0.0542 -0.1909
    1W        W49406  22.097   1.585   0.432  0.0864  0.0178  0.2162
    1W        W49407   9.965  27.705   7.887  0.0109  0.3909 -0.1545
    1W        W49408  24.720  21.865   8.216 -0.0237  0.2958  0.1138
    1W        W49409   4.108   3.825   2.567  0.0567  0.1778 -0.4654
    1W        W49410  23.371  16.917   8.507  0.1970 -0.2302  0.3390
    1W        W49411  20.924  23.187   7.208 -0.0132  0.2184 -0.0703
    1W        W49412   3.092  21.428   0.757 -0.1466 -0.0695  0.3601
    1W        W49413   3.019  16.391   0.308 -0.1129 -0.0597 -0.2844
    1W        W49414  28.530  10.973   6.733 -0.0111  0.1851  0.1245
    1W        W49415   3.388  28.109   2.150 -0.1084  0.1157 -0.0034
    1W        W49416  18.920   3.619   2.657  0.0947 -0.0965 -0.0473
    1W        W49417   1.918   9.036   2.628 -0.2243 -0.0048 -0.1131
    1W        W49418  16.162  28.977   7.403  0.0630 -0.0820  0.1515
    1W        W49419   9.750   0.011   0.612  0.5863  0.1203 -0.1018
    1W        W49420   4.160   7.955   2.283  0.2344 -0.0480 -0.1608
    1W        W49421  16.286  29.160   0.601  0.0428  0.1452  0.0608
    1W        W49422  22.995   5.659   8.443  0.1339  0.0140 -0.1835
    1W        W49423   6.741  11.348   3.256 -0.0177 -0.2452  0.3716
    1W        W49424  21.186  25.130   0.012 -0.0901  0.3423 -0.0863
    1W        W49425  13.729   5.890   9.286 -0.0033  0.0650  0.1874
    1W        W49426   6.765   5.394   9.212 -0.1243  0.2090  0.0898
    1W        W49427  12.621  16.348   1.763 -0.0981 -0.1962 -0.2451
    1W        W49428  17.156  10.822   2.411 -0.1192 -0.2363 -0.1189
    1W        W49429  15.617  14.082   0.911 -0.1873 -0.2066 -0.0368
    1W        W49430  21.602   9.454   6.789  0.3483  0.3494  0.0560
    1W        W49431  10.360  12.220   8.396 -0.0404  0.0510  0.0755
    1W        W49432   6.057   1.447   1.877 -0.1793  0.0664 -0.1810
    1W        W49433  24.168  18.940   9.303  0.0474  0.2777 -0.1578
    1W        W49434  12.411   6.001   1.560  0.0437 -0.1978  0.0432
    1W        W49435  25.301   1.368   9.260  0.1826 -0.1253 -0.0979
    1W        W49436  12.264  29.457   9.282 -0.0813 -0.0599  0.1892
    1W        W49437  16.426   5.027   5.683  0.1497  0.0831 -0.0888
    1W        W49438   4.921   5.992   7.697  0.0851  0.0327  0.1852
    1W        W49439  25.552   6.907   7.255  0.0552 -0.2029 -0.2562
    1W        W49440  12.140  19.155   7.106  0.2045  0.2516 -0.2353
    1W        W49441  10.488  24.367   2.352 -0.1408  0.1039  0.0137
    1W        W49442  22.722  15.922   1.592  0.0241  0.0384 -0.1949
    1W        W49443  29.369   5.459   1.475 -0.3369 -0.0602  0.0321
    1W        W49444   5.766   2.024   7.717 -0.1386 -0.4530  0.1715
    1W        W49445  15.706  21.439   2.626 -0.0485  0.4262  0.0257
    1W        W49446  27.170   8.301   7.194 -0.0470 -0.1208 -0.0117
    1W        W49447  12.035   9.049   7.551  0.0147 -0.0863  0.0977
    1W        W49448  25.679   3.127   2.901 -0.0598 -0.0539  0.0156
    1W        W49449  16.886   6.563   8.641  0.1993 -0.1377  0.2466
    1W        W49450   0.332   0.749   6.196 -0.1034  0.0994  0.0722
    1W        W49451  13.469  10.048   8.403 -0.1591  0.1440  0.0136
    1W        W49452  12.840  22.748   9.436 -0.2806  0.0498 -0.1176
    1W        W49453  28.818   2.742   0.558 -0.1265  0.3997 -0.1898
    1W        W49454  29.497  18.150   1.521 -0.2790  0.2546 -0.3164
    1W        W49455  29.170  20.531   6.892 -0.0832  0.0879 -0.2787
    1W        W49456  16.844   1.642   0.216 -0.0403 -0.0073  0.0893
    1W        W49457   9.912   5.898   8.469 -0.0078  0.1586  0.0242
    1W        W49458   4.935   4.648   1.511 -0.0678  0.0951  0.1533
    1W        W49459  23.625   0.017   0.948 -0.3509 -0.0350  0.2066
    1W        W49460  13.993  20.198   1.275 -0.2543 -0.1138  0.1477
    1W        W49461  10.906   8.793   0.449 -0.0921 -0.0600 -0.0227
    1W        W49462  12.278  22.163   8.904 -0.1930  0.1997  0.2877
    1W        W49463   2.361   0.091   0.050 -0.0209  0.0959 -0.1456
    1W        W49464  24.020  24.080   2.717  0.1956  0.1823  0.0684
    1W        W49465   7.742   1.996   8.994  0.1614 -0.2116 -0.2511
    1W        W49466   9.762   4.480   0.001 -0.0603  0.1719  0.1358
    1W        W49467  20.280  22.241   8.484  0.2870  0.0705  0.1317
    1W        W49468  27.109   2.540   8.796 -0.0844 -0.1267 -0.2274
    1W        W49469  19.506  15.615   8.573 -0.0390 -0.3952  0.0607
    1W        W49470   0.603  17.421   8.507 -0.0643  0.1733 -0.0895
    1W        W49471   8.169   6.442   1.906  0.0409 -0.1668  0.0557
    1W        W49472  18.690  27.214   0.251 -0.2974 -0.1042  0.1438
    1W        W49473  20.863  13.915   9.312  0.1775 -0.2873 -0.1754
    1W        W49474   3.946   2.448   8.069  0.0489  0.0478  0.0551
    1W        W49475   2.220  19.547   1.358 -0.0685 -0.0055 -0.1615
    1W        W49476  28.154  17.981   2.133 -0.0585 -0.1546  0.2465
    1W        W49477   6.493   1.889   8.230 -0.0027  0.0590  0.0196
    1W        W49478  13.270  27.422   2.604  0.1813 -0.0745 -0.1285
    1W        W49479   9.056   0.310   8.430  0.0590 -0.0002  0.3777
    1W        W49480   0.665   4.865   1.215 -0.0223  0.1540 -0.1075
    1W        W49481  15.557   8.780   9.444  0.0332  0.0740 -0.0788
    1W        W49482  10.363  23.625   9.332 -0.4117  0.2870  0.1573
    1W        W49483  13.008  10.860   2.347 -0.1115  0.0633 -0.3363
    1W        W49484  10.180  11.176   7.672 -0.0747 -0.2408  0.1646
    1W        W49485   9.613  27.730   8.267 -0.0200  0.0978 -0.0345
    1W        W49486   4.673   3.328   0.255 -0.3733 -0.3229 -0.1297
    1W        W49487  15.412  24.771   6.655  0.2201  0.0506 -0.3050
    1W        W49488   0.565  29.167   6.366  0.1634 -0.2170 -0.3157
    1W        W49489   5.935   0.994   0.849  0.3168 -0.0996 -0.0722
    1W        W49490  28.786  29.226   1.944 -0.1357  0.1163 -0.0338
    1W        W49491  18.641  14.315   1.279  0.0802 -0.1298  0.0395
    1W        W49492  14.059   0.707   3.862 -0.1752 -0.3205 -0.0378
    1W        W49493  10.889   6.976   2.868  0.2525 -0.3294  0.2585
    1W        W49494  25.442  15.945   0.374  0.2020  0.0509 -0.0157
    1W        W49495  24.211   2.682   8.802  0.0397  0.2772  0.0132
    1W        W49496  12.634  14.259   7.792 -0.1265 -0.1504 -0.0950
    1W        W49497  20.101  18.358   9.364 -0.1748  0.0367 -0.3055
    1W        W49498   6.306  25.786   0.047  0.0439  0.1832 -0.3196
    1W        W49499   4.769  11.828   8.241  0.2916 -0.0839 -0.0504
    1W        W49500   6.857  12.576   0.447  0.0702  0.1455 -0.1706
    1W        W49501  22.421  29.817   8.960 -0.1689 -0.1482 -0.2795
    1W        W49502  13.531  13.847   7.847  0.1208  0.2000 -0.2079
    1W        W49503  14.163  12.355   1.350  0.2570 -0.1788  0.2467
    1W        W49504  28.119  27.177   1.950  0.0421  0.3866 -0.2114
    1W        W49505  16.350  25.560   9.152  0.0319  0.1003 -0.1511
    1W        W49506  29.031  23.095   7.492 -0.1777 -0.1567 -0.1342
    1W        W49507  27.500   1.902   7.596 -0.0956 -0.0721  0.2940
    1W        W49508  20.102   2.826   7.654 -0.1983 -0.0221  0.2526
    1W        W49509  21.214   9.338   0.365 -0.3021 -0.0023  0.0595
    1W        W49510   9.385  29.793   8.025 -0.0934  0.0209 -0.0801
    1W        W49511   7.846  16.200   2.452  0.2145 -0.3117  0.0067
    1W        W49512  20.277   9.337   6.731  0.3218  0.1605  0.2738
    1W        W49513   8.671  22.367   8.697 -0.0849 -0.0283  0.0330
    1W        W49514  15.049  12.599   7.014 -0.0794 -0.1196 -0.2259
    1W        W49515  17.681   0.841   6.198 -0.3749 -0.1869 -0.1918
    1W        W49516   8.118  25.961   0.483  0.0468  0.0095  0.5002
    1W        W49517  14.207  23.717   6.703 -0.0102 -0.1937  0.1243
    1W        W49518  24.373  16.995   6.447 -0.1308  0.4018 -0.2614
    1W        W49519   6.424  19.502   5.408 -0.0622  0.0431  0.1159
    1W        W49520   5.617  16.335   2.068  0.3907  0.2193  0.1985
    1W        W49521   0.042   1.753   1.734  0.1906 -0.0655  0.4147
    1W        W49522  21.632  17.556   1.982 -0.2998 -0.1826  0.0346
    1W        W49523  12.551  29.808   1.299 -0.0331  0.2623  0.2737
    1W        W49524  27.296  22.355   1.426  0.4785  0.2079 -0.1708
    1W        W49525  27.786   7.377   2.290 -0.1493  0.1107  0.3595
    1W        W49526  11.705  23.371   9.014 -0.3113 -0.1102 -0.0160
    1W        W49527  28.635  23.319   1.562  0.0526 -0.1762 -0.2624
    1W        W49528   5.631  12.531   0.153  0.3096 -0.0584 -0.1251
    1W        W49529  23.244  21.147   2.381  0.0560 -0.3160  0.1727
    1W        W49530  24.596  25.796   9.378  0.2169 -0.1147  0.1172
    1W        W49531  29.041  18.159   2.092 -0.0434 -0.0129 -0.1747
    1W        W49532  13.809   2.781   0.907  0.1840  0.1755 -0.4564
    1W        W49533   6.496   1.268   1.707  0.0153 -0.0381  0.1372
    1W        W49534   9.355   8.702   8.586 -0.3075  0.3220 -0.0193
    1W        W49535  25.908  13.915   0.186 -0.2416  0.2438  0.1106
    1W        W49536  24.995   6.778   7.264 -0.0322 -0.1172 -0.0345
    1W        W49537   0.977  10.267   1.284 -0.1440 -0.4385  0.0292
    1W        W49538  16.437   2.745   7.349 -0.1632  0.3616  0.0528
    1W        W49539  11.772  17.829   8.914 -0.1430  0.0359 -0.2946
    1W        W49540  11.625   5.838   2.609  0.3083  0.1451  0.2844
    1W        W49541  12.567  27.648   3.780  0.0139 -0.1963 -0.0981
    1W        W49542  16.342  13.124   9.288  0.3490  0.2415  0.1232
    1W        W49543   4.770  13.525   1.199  0.2687 -0.2025 -0.0232
    1W        W49544  16.182  19.219   8.486 -0.0073  0.1579 -0.0886
    1W        W49545   2.117  17.723   0.620  0.0253 -0.1117 -0.1027
    1W        W49546  26.742  24.998   8.904  0.1161 -0.0687 -0.1147
    1W        W49547  14.990  18.515   1.377  0.2416  0.0636  0.0201
    1W        W49548  25.786  23.558   0.400  0.0698  0.1984 -0.2175
    1W        W49549  17.043  13.809   8.753  0.0776 -0.1737  0.0956
    1W        W49550   1.658  13.862   7.608  0.0228  0.1944  0.0727
    1W        W49551  16.976   0.714   0.109 -0.1842  0.0054 -0.1230
    1W        W49552  12.668  19.974   1.922  0.5580 -0.0171 -0.2034
    1W        W49553  27.957   7.088   7.546 -0.4735  0.1225  0.4863
    1W        W49554   1.914  22.870   8.630  0.0173  0.2476  0.2295
    1W        W49555   4.022  21.656   7.495  0.1902  0.2382 -0.4207
    1W        W49556   6.410   8.205   0.947 -0.1345  0.1036 -0.2824
    1W        W49557   2.143  26.722   7.439  0.0556  0.1308 -0.0394
    1W        W49558  28.139  24.774   7.515  0.1419 -0.1541 -0.0748
    1W        W49559  16.057  26.935   2.804  0.0336 -0.3881 -0.0945
    1W        W49560  19.290  28.540   8.837  0.1527  0.1564  0.1193
    1W        W49561  14.896  19.839   0.789  0.1658  0.0636  0.1006
    1W        W49562   2.005   6.533   2.626  0.0080  0.3461 -0.3487
    1W        W49563  28.378  26.102   8.967 -0.0181 -0.2561  0.1208
    1W        W49564   4.368   2.063   8.896 -0.2383 -0.0055  0.3010
    1W        W49565   6.247   9.608   0.175  0.2745  0.0731  0.0570
    1W        W49566  18.092   6.563   7.211 -0.0930  0.2230  0.0711
    1W        W49567  29.496   5.372   7.855  0.1029  0.0082 -0.3682
    1W        W49568  19.541  28.209   7.789  0.0026  0.0145  0.0363
    1W        W49569  26.163  19.905   1.550 -0.1462  0.0641 -0.0198
    1W        W49570  12.765  23.650   1.822 -0.1421  0.1522  0.0656
    1W        W49571   7.661  25.906   8.565  0.0245  0.3227  0.1778
    1W        W49572  15.692  14.997   7.197  0.1849 -0.0974  0.0657
    1W        W49573  10.889   7.836   8.415 -0.0192  0.0510  0.2887
    1W        W49574   0.125  14.855   7.438 -0.0917 -0.5203 -0.2223
    1W        W49575  26.190   4.082   8.341  0.4014  0.1205  0.0061
    1W        W49576  16.761  18.593   8.781 -0.0700  0.1682  0.2583
    1W        W49577   8.006  21.132   1.689  0.1876 -0.0500 -0.0996
    1W        W49578   7.538   7.781   7.665  0.1999 -0.2394  0.0719
    1W        W49579  11.497   4.522   0.325  0.1251 -0.2725 -0.2300
    1W        W49580   4.703  28.518   8.478  0.0937 -0.0617  0.3765
    1W        W49581  28.560  24.126   6.932  0.0669 -0.0560 -0.4448
    1W        W49582  12.762  28.634   2.564 -0.3170  0.1467  0.1391
    1W        W49583   4.497  19.959   2.116  0.1793  0.1719  0.0289
    1W        W49584   4.288   7.844   9.272 -0.2867  0.1592 -0.1004
    1W        W49585  27.455   7.486   8.390 -0.0681  0.1205  0.1720
    1W        W49586  13.774   6.898   1.392  0.0308 -0.2560 -0.3139
    1W        W49587  11.031  29.255   7.153 -0.0991 -0.3758 -0.0564
    1W        W49588  15.752  14.304   6.497 -0.2974 -0.0556  0.1632
    1W        W49589  25.562  17.430   0.647  0.2913 -0.1045 -0.2773
    1W        W49590   6.972   2.937   1.291  0.1040 -0.2738  0.0206
    1W        W49591  27.726  23.740   0.620 -0.2095 -0.0055 -0.0409
    1W        W49592  24.866  22.081   8.678 -0.0174  0.1904 -0.3393
    1W        W49593   9.540   2.590   1.793 -0.1663  0.1766  0.1102
    1W        W49594   3.450  19.310   5.845 -0.0762 -0.0304  0.0106
    1W        W49595  10.193  26.366   3.024  0.3108  0.1036 -0.1172
    1W        W49596   0.554  11.413   7.244 -0.0577 -0.0751  0.0815
    1W        W49597  24.835  27.807   2.493 -0.1050 -0.2742 -0.0404
    1W        W49598  13.584  14.881   0.638 -0.1794 -0.2444 -0.1175
    1W        W49599  27.434   9.406   8.286  0.3812 -0.0159 -0.0717
    1W        W49600   8.778   2.679   3.103  0.2772  0.3828  0.0379
    1W        W49601   9.787   8.189   2.595 -0.0799 -0.1908  0.0775
    1W        W49602  21.599  10.563   8.934 -0.1270 -0.3342 -0.4025
    1W        W49603   1.888   3.256   7.680  0.1422  0.1153 -0.0222
    1W        W49604  11.698  20.512   0.556 -0.1024  0.0592 -0.0894
    1W        W49605  23.710  21.688   0.588 -0.2731  0.0235  0.1245
    1W        W49606  21.401  17.451   7.104  0.2018  0.0079  0.0523
    1W        W49607   3.047  18.166   6.837 -0.1685 -0.1271  0.2961
    1W        W49608   8.144  21.023   0.724 -0.1339 -0.0612 -0.1229
    1W        W49609  10.416  20.996   0.676  0.1812 -0.1406 -0.1555
    1W        W49610  16.008  11.734   7.007 -0.4681 -0.1710  0.2558
    1W        W49611  21.416   7.946   0.106 -0.3042  0.2394  0.0900
    1W        W49612  28.760   5.162   8.509 -0.0686  0.0401 -0.2212
    1W        W49613  24.860  22.048   7.026 -0.0162 -0.0651  0.1219
    1W        W49614   4.522  18.876   6.601 -0.0494 -0.1363 -0.2210
    1W        W49615  18.110  22.603   2.857  0.1852 -0.1950  0.1985
    1W        W49616  15.810   8.616   0.447 -0.1309  0.0203  0.2503
    1W        W49617  11.961   0.446   2.032 -0.0580  0.0360  0.0754
    1W        W49618  17.025  13.728   0.849  0.1746  0.2311  0.0243
    1W        W49619   6.090  22.833   9.418  0.0247  0.0645  0.1652
    1W        W49620  18.154  25.055   1.978  0.0690  0.1252  0.0828
    1W        W49621  12.390  29.008   2.496 -0.1342 -0.0469  0.0102
    1W        W49622  27.291  15.897   6.804 -0.0300  0.1277  0.2224
    1W        W49623  12.344  27.678   0.305  0.1270  0.3476  0.0496
    1W        W49624   4.438  17.272   9.315 -0.2971 -0.2790 -0.1838
    1W        W49625  23.661  21.716   3.483 -0.1521  0.0223 -0.2284
    1W        W49626   2.803   9.842   2.392  0.1246  0.0341 -0.1166
    1W        W49627  24.538   7.572   8.100  0.1439 -0.1554  0.0418
    1W        W49628  23.609  26.118   7.520  0.4053  0.1552  0.1676
    1W        W49629  28.633  17.926   9.128 -0.2005 -0.1664 -0.2765
    1W        W49630  24.243   1.079   1.914  0.1300 -0.3104  0.1111
    1W        W49631  20.329   0.566   7.508  0.1288  0.0306 -0.0687
    1W        W49632   7.170  27.278   2.326  0.4631 -0.0008 -0.1127
    1W        W49633  18.705  15.837   8.131  0.2683 -0.1757  0.3200
    1W        W49634  14.394   8.173   2.991  0.0828  0.2780 -0.0591
    1W        W49635  24.331   3.463   0.032 -0.0302 -0.1823  0.0991
    1W        W49636  21.442   7.061   0.044  0.3138 -0.0922  0.2285
    1W        W49637  25.668  28.833   1.769  0.1529  0.2344  0.0437
    1W        W49638  10.535  29.215   7.132 -0.1204 -0.1718  0.0245
    1W        W49639   0.065  25.335   8.432  0.1237 -0.0042 -0.0337
    1W        W49640   5.988  11.591   6.038  0.2638  0.1838 -0.1817
    1W        W49641  15.688   3.936   0.455 -0.0105 -0.1717  0.3713
    1W        W49642   7.247  16.377   0.514 -0.1953 -0.2009  0.1672
    1W        W49643  17.360  10.578   0.559 -0.1151 -0.3762  0.0217
    1W        W49644  13.683  15.378   1.567 -0.0236  0.0248 -0.0430
    1W        W49645  24.452  13.916   8.355 -0.1827  0.1016 -0.3233
    1W        W49646   3.119  29.226   7.275 -0.0143  0.1272 -0.0049
    1W        W49647   5.849  22.134   7.017 -0.1849 -0.1032 -0.0419
    1W        W49648  17.580   2.591   6.888  0.0769  0.2911 -0.2210
    1W        W49649  22.207  28.886   8.774  0.3847  0.0345  0.2431
    1W        W49650  10.573   0.333   9.249  0.0803  0.0139 -0.1623
    1W        W49651   8.769   7.329   2.728 -0.2226 -0.1876  0.4493
    1W        W49652   9.945   0.494   2.776  0.0802 -0.0288 -0.1983
    1W        W49653  22.653   2.867   0.451  0.4278  0.2424 -0.1880
    1W        W49654  17.670  19.843   8.154 -0.0360  0.3801  0.0942
    1W        W49655  22.723   3.931   3.705 -0.1673  0.1147  0.3784
    1W        W49656  17.044  24.479   8.651 -0.1380  0.1026  0.2765
    1W        W49657  24.688   1.935   1.489 -0.2816 -0.1046  0.1367
    1W        W49658  20.287  29.296   1.366  0.2198 -0.2573  0.0845
    1W        W49659  17.152  10.990   0.266  0.0939  0.2455 -0.1207
    1W        W49660  24.626  12.566   6.622 -0.3534  0.2235 -0.3279
    1W        W49661  14.818  21.296   8.403 -0.1232 -0.0417 -0.1149
    1W        W49662  25.004  14.613   1.803 -0.1268  0.1276 -0.1174
    1W        W49663  29.312  14.423   2.680 -0.0955  0.0370  0.0662
    1W        W49664  25.809  19.375   6.808 -0.0050 -0.1265  0.1377
    1W        W49665  29.747   1.333   0.661  0.1282  0.2509 -0.0042
    1W        W49666  11.166  11.798   0.887  0.3865 -0.0531  0.0626
    1W        W49667  22.290  10.001   1.786 -0.1274 -0.1357 -0.1470
    1W        W49668   7.708  27.625   8.282  0.0001  0.3168  0.0967
    1W        W49669  27.011  11.678   8.079 -0.3835  0.4458 -0.1712
    1W        W49670  26.271  21.642   7.237  0.0570  0.1578  0.2280
    1W        W49671   9.279  27.194   8.072 -0.0124  0.0743 -0.0650
    1W        W49672  27.898  13.049   9.352 -0.1490  0.2420 -0.0431
    1W        W49673   9.518  15.554   8.892  0.0031 -0.0897 -0.0981
    1W        W49674  17.139   2.918   9.302 -0.0552  0.2399 -0.0987
    1W        W49675  12.400   0.484   7.863 -0.3688 -0.1845 -0.1178
    1W        W49676   5.161  22.843   0.144 -0.0375  0.0241  0.0558
    1W        W49677  15.730  17.147   7.215 -0.1554 -0.0265  0.0949
    1W        W49678  19.354  18.583   8.584  0.2185  0.0420  0.1936
    1W        W49679  19.850  22.967   7.126  0.1220  0.0675 -0.0077
    1W        W49680   5.220  29.229   3.121  0.1050  0.1216  0.1146
    1W        W49681   7.204   4.252   8.148  0.2861  0.2523 -0.0489
    1W        W49682   1.140   9.942   2.481 -0.3910 -0.1243 -0.2330
    1W        W49683  28.382   7.864   1.547  0.1957  0.0095  0.2269
    1W        W49684  20.112  14.215   7.979  0.1434 -0.0056  0.0117
    1W        W49685  19.448  11.420   8.336  0.1216 -0.0038  0.1020
    1W        W49686   6.755  22.172   6.600 -0.3140 -0.0032  0.0860
    1W        W49687  20.525  23.164   9.166 -0.1462  0.0800  0.2393
    1W        W49688  23.274  19.139   2.107 -0.4074  0.1122 -0.2867
    1W        W49689   2.093  24.029   8.746 -0.4036  0.2381 -0.0355
    1W        W49690   2.883  18.384   1.641 -0.2202  0.2630 -0.0505
    1W        W49691  25.481   2.335   2.460 -0.1187 -0.0986 -0.0397
    1W        W49692   8.965   9.262   1.851  0.0446 -0.2415 -0.2772
    1W        W49693   6.494  28.377   3.162  0.1251 -0.0387  0.1136
    1W        W49694   4.744  17.672   7.835 -0.0704 -0.1679 -0.0567
    1W        W49695   3.437  26.174   0.092 -0.3372  0.1759 -0.0388
    1W        W49696  23.703   4.924   1.869  0.3038  0.1529 -0.1809
    1W        W49697  24.456  13.368   6.150  0.0293  0.0868  0.1017
    1W        W49698  20.508  22.889   7.311  0.4213  0.0150 -0.0264
    1W        W49699  22.532  19.977   1.290 -0.0562 -0.0977  0.0707
    1W        W49700  12.747  16.136   1.213 -0.2254  0.2393  0.1951
    1W        W49701  28.106  16.806   1.594 -0.0347 -0.0072 -0.2545
    1W        W49702   9.192  16.302   6.930 -0.0292 -0.3153  0.2502
    1W        W49703  24.493  10.030   7.521  0.2154 -0.2650 -0.2488
    1W        W49704  25.570  24.687   1.006  0.1157  0.2493  0.0038
    1W        W49705  20.760  10.015   2.053  0.2306 -0.1356 -0.0444
    1W        W49706  18.231  12.501   1.211  0.1330 -0.1622  0.0740
    1W        W49707   5.989  29.401   2.512 -0.2225  0.1264  0.1472
    1W        W49708  15.580   2.625   1.482 -0.4010  0.1361  0.0556
    1W        W49709   7.888  27.391   1.611 -0.2201  0.3383  0.1468
    1W        W49710  29.686  19.144   0.110 -0.2395  0.1328 -0.1139
    1W        W49711  20.192   3.281   8.121 -0.0128  0.2677 -0.2443
    1W        W49712   6.369   1.479   3.257 -0.0783 -0.2216 -0.3057
    1W        W49713  14.209  17.024   7.325 -0.2433  0.1944 -0.0590
    1W        W49714  18.880  29.329   1.984 -0.3885 -0.1307 -0.1644
    1W        W49715   9.286   0.916   9.113  0.0537 -0.2466  0.5545
    1W        W49716  21.625  28.232   8.232 -0.0186 -0.2324 -0.0848
    1W        W49717  21.371   3.942   6.403  0.0363  0.0854 -0.0002
    1W        W49718  11.060  20.541   9.234  0.0038  0.1092  0.1203
    1W        W49719  17.020   7.766   1.568  0.0150 -0.2188  0.0404
    1W        W49720  21.581  28.328   9.341 -0.0466  0.3341  0.0219
    1W        W49721  16.710  22.574   0.257 -0.0765  0.3385  0.0774
    1W        W49722  23.665   8.816   0.599 -0.2228 -0.2396 -0.0901
    1W        W49723   8.810  25.083   2.186  0.3838  0.0298  0.1706
    1W        W49724   8.131  19.913   5.744 -0.1456  0.0264 -0.1700
    1W        W49725   3.357  28.978   8.284  0.3486  0.5002  0.0385
    1W        W49726  17.862  20.441   9.276  0.0079 -0.1071  0.0045
    1W        W49727   8.128   2.195   2.698  0.1764 -0.1691 -0.0071
    1W        W49728  24.186  20.576   8.790  0.0933 -0.0640  0.0829
    1W        W49729   4.147   5.076   1.309  0.2931  0.1352  0.1007
    1W        W49730  14.177  26.656   2.672  0.0116 -0.0872  0.3432
    1W        W49731  20.837   1.375   7.189  0.1256 -0.1677 -0.1819
    1W        W49732  17.513  27.260   7.862 -0.0302 -0.0128  0.0441
    1W        W49733  27.923  21.749   3.232  0.1603  0.2837  0.5409
    1W        W49734  27.137  14.563   8.418 -0.1983  0.4243  0.0601
    1W        W49735  11.215   5.099   8.539 -0.3200  0.2445 -0.1563
    1W        W49736  11.473   6.964   8.900  0.2358 -0.2362  0.0211
    1W        W49737  27.102  14.381   0.582  0.1310 -0.0022 -0.3229
    1W        W49738  29.793  19.916   2.560 -0.1783 -0.0392 -0.0564
    1W        W49739   1.507   0.511   2.433 -0.5362 -0.0566 -0.3603
    1W        W49740  16.682  22.619   2.133 -0.0011 -0.0518  0.3710
    1W        W49741  11.586   9.008   9.276  0.0770 -0.2719 -0.1991
    1W        W49742   3.293  19.518   1.589  0.0427 -0.1733 -0.0067
    1W        W49743  20.418   3.736   8.214  0.1616 -0.0072 -0.1340
    1W        W49744   9.766  13.131   0.331 -0.0318  0.0270  0.0818
    1W        W49745   7.950  23.337   7.602 -0.1412 -0.1522  0.0280
    1W        W49746  28.594  16.690   8.412 -0.0811  0.2688 -0.0478
    1W        W49747  27.242   6.608   8.983  0.0562  0.0537  0.0487
    1W        W49748  29.445  11.768   6.748 -0.0070 -0.4526  0.0378
    1W        W49749  21.433  22.278   1.795 -0.2751  0.1870 -0.2660
    1W        W49750  10.127   4.700   7.339  0.1815  0.2755  0.1401
    1W        W49751  22.644  22.112   8.300 -0.1205  0.2248  0.1169
    1W        W49752  28.239  19.696   7.343 -0.0167  0.0595  0.0351
    1W        W49753  28.790   4.895   9.419 -0.1259  0.2047  0.3101
    1W        W49754  11.493  11.252   7.755  0.1512 -0.2568  0.1329
    1W        W49755  12.857  25.118   2.710 -0.0665  0.0565 -0.1856
    1W        W49756   7.084   5.821   0.018 -0.0920  0.0388 -0.1187
    1W        W49757  14.414  10.895   9.229  0.0803  0.1902  0.1952
    1W        W49758  22.901   4.122   0.025 -0.0778 -0.0754 -0.0010
    1W        W49759   4.799   1.791   8.807 -0.0111 -0.0655 -0.1693
    1W        W49760  28.565   2.179   6.538  0.2564  0.0833 -0.3845
    1W        W49761  14.885  23.189   6.699 -0.2563  0.3636  0.0883
    1W        W49762  14.117  25.971   8.164 -0.0056 -0.1667 -0.1509
    1W        W49763  15.030  25.640   1.176  0.0604  0.1717  0.3351
    1W        W49764  17.191  14.352   0.826 -0.0591 -0.1148 -0.0873
    1W        W49765  14.181   6.169   2.479  0.0106 -0.1165  0.3549
    1W        W49766  26.841  21.022   1.961 -0.0758 -0.0258  0.0919
    1W        W49767   0.240  18.202   9.260 -0.1554  0.1453  0.0846
    1W        W49768  28.626   6.181   2.566 -0.0725  0.0457 -0.1041
    1W        W49769  15.796   5.923   7.924  0.0913 -0.2034 -0.0113
    1W        W49770  24.163   3.897   7.508 -0.2777 -0.1539 -0.1717
    1W        W49771  22.642  21.148   7.164  0.1038 -0.0546 -0.0143
    1W        W49772  25.215  25.439   8.174  0.0531 -0.0192 -0.1334
    1W        W49773   0.217  10.826   7.739 -0.0743  0.3106  0.2373
    1W        W49774  10.086   4.270   1.613 -0.0064 -0.1836 -0.1267
    1W        W49775  17.075  12.587   9.015 -0.1102  0.0925  0.3459
    1W        W49776   4.702   7.445   3.012 -0.0358 -0.3076 -0.0413
    1W        W49777   8.087  14.057   1.999 -0.4331  0.0272 -0.0118
    1W        W49778   9.669   3.174   3.500 -0.2045 -0.0466  0.0163
    1W        W49779  27.474   1.771   8.478 -0.2945  0.1553 -0.0350
    1W        W49780  17.379   7.084   1.292  0.2229 -0.1246  0.1744
    1W        W49781   6.139   1.495   8.215  0.3408  0.2026 -0.1624
    1W        W49782   1.274   3.065   0.064 -0.1849  0.1653 -0.1775
    1W        W49783  15.232  28.116   8.553 -0.0593 -0.0661  0.0296
    1W        W49784  19.219  14.350   8.914  0.0286 -0.0627 -0.1648
    1W        W49785  15.723  18.065   9.363  0.0694 -0.7447 -0.0968
    1W        W49786   6.711   1.253   3.537  0.0622 -0.3236  0.0292
    1W        W49787   1.596  15.518   0.310 -0.1556  0.0733  0.1097
    1W        W49788  22.016  23.024   2.732 -0.0940  0.1863 -0.1944
    1W        W49789  16.532   0.982   9.143 -0.0317 -0.2445  0.1275
    1W        W49790   4.458   8.725   7.745  0.1066 -0.1778 -0.0328
    1W        W49791  29.046   6.245   2.282  0.1556 -0.1383  0.1244
    1W        W49792  12.590  17.578   0.352  0.0461  0.3148  0.0245
    1W        W49793  26.189  23.719   1.188  0.0652 -0.3054 -0.0778
    1W        W49794   8.379  16.834   9.357  0.1139 -0.1081  0.1461
    1W        W49795   8.664  20.097   8.813  0.3308  0.0368  0.1453
    1W        W49796  22.146  11.430   6.514 -0.1029  0.1050 -0.0940
    1W        W49797  15.584  24.047   8.442  0.0622  0.3050  0.4940
    1W        W49798  10.351  28.564   2.507 -0.1263 -0.3723  0.0270
    1W        W49799  11.142  21.045   9.266  0.0433 -0.2037 -0.0706
    1W        W49800  16.744  20.344   6.733 -0.1543  0.1794 -0.3158
    1W        W49801  28.529  21.492   2.794 -0.4685 -0.2743 -0.0206
    1W        W49802  24.560  23.458   2.089  0.2173  0.1767  0.0197
    1W        W49803  28.351  20.249   2.665  0.1429 -0.1929 -0.0794
    1W        W49804  13.001  17.062   1.525 -0.1115 -0.0825 -0.1937
    1W        W49805  25.009  18.872   8.366 -0.1845 -0.2717 -0.0083
    1W        W49806  14.525  27.360   8.374 -0.0469 -0.1222 -0.2329
    1W        W49807   3.961  13.140   8.211  0.0436 -0.0721 -0.0337
    1W        W49808  10.400  16.212   1.484 -0.0297 -0.1048 -0.0426
    1W        W49809   6.576  22.882   0.619 -0.0130 -0.2057  0.0007
    1W        W49810  17.875  15.929   7.556 -0.1059  0.0288 -0.2599
    1W        W49811  25.104  28.219   3.306  0.1719  0.2522  0.0511
    1W        W49812   1.454  16.689   7.153  0.0533  0.1951  0.0240
    1W        W49813  25.851  17.388   0.211  0.2461 -0.0760  0.0790
    1W        W49814  14.186  12.900   1.196 -0.1221 -0.2313 -0.1341
    1W        W49815  14.986  29.243   7.118  0.1748  0.1957  0.1769
    1W        W49816  16.081   8.162   0.542 -0.0655 -0.1687  0.5004
    1W        W49817   3.058  12.580   1.623  0.1972  0.1085 -0.0988
    1W        W49818   7.763  21.035   7.076  0.1701 -0.0866  0.3528
    1W        W49819   7.401   9.275   8.942  0.0321  0.0552  0.0518
    1W        W49820  18.464  28.497   1.554 -0.1467  0.2232  0.0805
    1W        W49821   0.616  17.044   0.034 -0.1288  0.0176  0.0894
    1W        W49822  12.368  20.018   7.892 -0.0270 -0.0026 -0.1587
    1W        W49823   9.771  21.069   8.567 -0.0372  0.0673 -0.0398
    1W        W49824  19.130   9.513   7.582 -0.1147  0.0788  0.2686
    1W        W49825  22.296  10.528   0.511 -0.1643  0.1241 -0.0588
    1W        W49826   3.582   5.609   2.697  0.2604 -0.3304  0.2891
    1W        W49827   3.860  19.515   7.784  0.1710  0.2584  0.2288
    1W        W49828  24.928  10.368   2.426  0.0853  0.0885 -0.2258
    1W        W49829  19.159   9.562   6.949 -0.1539  0.2365 -0.0097
    1W        W49830  20.549  24.172   8.800 -0.0001 -0.0485  0.0458
    1W        W49831  22.036   7.850   7.770  0.0109  0.1273 -0.1148
    1W        W49832  17.676  18.852   7.458  0.1659  0.0673  0.0939
    1W        W49833  28.493  11.089   2.459  0.1004 -0.2034 -0.0551
    1W        W49834  19.194   5.325   7.433  0.2691  0.1682 -0.2266
    1W        W49835  29.160  24.570   6.152  0.0776 -0.2840 -0.0259
    1W        W49836   7.892   4.498   2.628 -0.0294  0.2928 -0.1487
    1W        W49837  21.993   9.279   1.053  0.1969 -0.0305 -0.1799
    1W        W49838   1.170  10.302   2.885 -0.0728 -0.0786 -0.2911
    1W        W49839  23.212  17.787   7.593 -0.1497  0.0291 -0.5098
    1W        W49840  22.000   8.133   6.352 -0.1101  0.3633 -0.1196
    1W        W49841   9.742  26.562   0.647 -0.1287 -0.0035 -0.3840
    1W        W49842  17.123   1.185   6.852  0.2830  0.2335  0.1485
    1W        W49843  10.381  18.421   0.470  0.1087  0.2001  0.1514
    1W        W49844  12.435   0.679   0.362 -0.0414 -0.3114 -0.1313
    1W        W49845  21.570  28.817   0.645 -0.1299 -0.0180  0.7501
    1W        W49846   9.148  24.260   7.099  0.3228 -0.1248  0.2418
    1W        W49847  23.602  27.261   7.347  0.0523 -0.1571  0.1563
    1W        W49848  10.571  25.640   8.300 -0.2509 -0.1112  0.3332
    1W        W49849  20.123  21.021   0.145  0.2149 -0.2421 -0.1558
    1W        W49850   4.514  15.479   8.130 -0.0204 -0.0697 -0.2292
    1W        W49851  21.833   9.450   8.036 -0.1361  0.2792 -0.0523
    1W        W49852   0.120  17.635   2.196 -0.2734  0.0020 -0.0107
    1W        W49853  27.305  20.803   8.771  0.1235  0.1542  0.1763
    1W        W49854  13.579  25.995   0.720  0.2012 -0.1097 -0.0300
    1W        W49855  19.128   6.925   1.823 -0.1490 -0.0693  0.1794
    1W        W49856   9.134   9.907   8.425  0.2281 -0.0941  0.1145
    1W        W49857  10.130   8.188   0.691 -0.2971  0.0024  0.1053
    1W        W49858  23.493  29.329   2.343  0.3487 -0.0186 -0.0393
    1W        W49859   3.469  20.319   8.516  0.2053 -0.2194 -0.0205
    1W        W49860  28.007  14.615   6.550 -0.2220  0.0901  0.1996
    1W        W49861   6.358  10.383   8.517 -0.1463  0.2956  0.1501
    1W        W49862  22.839  24.485   7.467  0.0700 -0.2003  0.0922
    1W        W49863   0.292  24.427   6.913 -0.0042  0.1611  0.2152
    1W        W49864   3.417   3.586   7.782 -0.1032  0.0108  0.2317
    1W        W49865  20.613   8.015   9.155  0.0263 -0.1329  0.2566
    1W        W49866  29.300  25.430   6.208 -0.0432 -0.2673 -0.0794
    1W        W49867  13.748  17.276   7.060 -0.0880  0.0285  0.0544
    1W        W49868  24.361  11.060   6.409 -0.2070  0.2744  0.0126
    1W        W49869  20.616  11.723   1.065  0.1168  0.2693 -0.0623
    1W        W49870   8.065   0.714   1.496  0.0643  0.1568 -0.0641
    1W        W49871  28.436   1.085   1.009  0.0923  0.1377  0.0044
    1W        W49872  25.944  25.211   2.139  0.1680  0.0210  0.0969
    1W        W49873   8.893   1.839   1.075 -0.2521 -0.0229  0.0624
    1W        W49874  27.693  16.604   6.591 -0.2955  0.1040 -0.1499
    1W        W49875  25.598  17.662   7.590 -0.0011  0.0008  0.4437
    1W        W49876  24.913  22.503   8.918 -0.1014  0.2103  0.0020
    1W        W49877   5.931  19.394   0.779  0.2447 -0.2059 -0.0468
    1W        W49878  17.999   9.316   1.821  0.0518 -0.0184 -0.2504
    1W        W49879  12.899  12.446   8.593 -0.2065 -0.0709  0.1883
    1W        W49880  28.077   2.000   7.794 -0.0616  0.1287 -0.0519
    1W        W49881  14.097   5.798   8.930  0.1020 -0.0554 -0.2279
    1W        W49882   4.756  10.276   8.957  0.4295  0.1368 -0.1693
    1W        W49883  12.970  26.717   3.253 -0.0813 -0.1892 -0.1196
    1W        W49884   8.893  23.888   1.405 -0.1260 -0.0685 -0.2598
    1W        W49885  24.582  29.804   3.632  0.0146 -0.0227  0.1776
    1W        W49886   3.390  24.640   9.363  0.0139  0.0786  0.0252
    1W        W49887  20.302   1.553   7.925  0.1199  0.0708 -0.2135
    1W        W49888   8.963  25.428   1.150  0.3478  0.1516  0.2307
    1W        W49889   5.389   8.918   2.361 -0.0516  0.2997 -0.2464
    1W        W49890  12.476   6.087   8.549  0.1692  0.2045  0.1184
    1W        W49891  10.520  19.650   9.341 -0.1416 -0.2027  0.0492
    1W        W49892  15.034  13.568   7.399 -0.0064 -0.0845  0.0856
    1W        W49893  22.432   4.212   9.372  0.0087 -0.1821  0.0404
    1W        W49894  13.681  17.810   7.023 -0.2654 -0.3655 -0.1758
    1W        W49895  28.779  24.257   1.744 -0.0942 -0.0186 -0.0721
    1W        W49896   4.956  22.862   7.862  0.1307  0.4068 -0.0664
    1W        W49897  13.509  11.827   2.485  0.0365  0.1201  0.0688
    1W        W49898  20.188  28.423   9.331  0.4095  0.1650  0.0958
    1W        W49899  24.829  12.680   8.461 -0.1194  0.1648 -0.0370
    1W        W49900  12.487   4.780   9.016 -0.3932  0.0698  0.4740
    1W        W49901  13.958  19.843   1.660 -0.1952  0.1015  0.0995
    1W        W49902  14.681  28.366   3.195 -0.1587  0.0786  0.1180
    1W        W49903  24.087  11.711   6.022  0.0029  0.0708 -0.1936
    1W        W49904  11.404   2.731   0.541  0.0709  0.0957  0.1891
    1W        W49905  10.310   0.181   7.528  0.4355 -0.0242  0.1388
    1W        W49906  12.532   6.227   0.916 -0.0573  0.1222  0.1097
    1W        W49907  20.546   8.465   7.116  0.1777  0.5511 -0.0409
    1W        W49908  23.800  19.961   7.267  0.0029  0.1684  0.0692
    1W        W49909   8.189  20.078   8.093 -0.5482  0.0843 -0.4017
    1W        W49910  25.814  12.937   8.692  0.3034 -0.0472  0.2913
    1W        W49911   1.067   1.774   1.876  0.1259  0.2375 -0.2191
    1W        W49912  17.080  23.507   1.717 -0.0354  0.1893  0.1482
    1W        W49913  23.719  16.333   0.823  0.0429  0.1671  0.0924
    1W        W49914   1.393   8.765   1.971  0.0093  0.1634  0.1371
    1W        W49915  27.955  22.847   7.889 -0.1953  0.1430 -0.2393
    1W        W49916  16.127  26.811   0.960  0.3571 -0.1901  0.1177
    1W        W49917  18.333   5.848   5.926 -0.3097  0.0236 -0.0078
    1W        W49918   4.505  17.896   7.466  0.3949  0.1899  0.0013
    1W        W49919  11.689   9.558   3.143  0.1164 -0.0455  0.0438
    1W        W49920  23.025  26.656   7.163 -0.1804 -0.0737 -0.0734
    1W        W49921   0.063  24.814   6.675 -0.2924  0.0905  0.1249
    1W        W49922  18.349   6.734   1.547 -0.0444  0.0251  0.0122
    1W        W49923  11.801   0.625   7.640 -0.0054 -0.1710  0.1210
    1W        W49924   9.128   9.660   0.072 -0.3628  0.1974 -0.1710
    1W        W49925  25.529  25.294   3.069  0.1711  0.1914 -0.0186
    1W        W49926  22.965   5.501   2.221 -0.0486  0.0431  0.0143
    1W        W49927   2.702   9.372   8.091  0.1668 -0.0729 -0.1829
    1W        W49928  10.936  18.379   0.303  0.0922 -0.4880 -0.0334
    1W        W49929  17.258  21.904   1.611  0.1661  0.1449  0.2218
    1W        W49930  25.540  12.213   9.123 -0.0906 -0.1469  0.2473
    1W        W49931  19.319  11.815   9.283 -0.0192 -0.5105 -0.0672
    1W        W49932  24.934   5.750   7.401 -0.0053  0.0415  0.0326
    1W        W49933   6.517  13.215   1.922 -0.1381  0.1152 -0.0967
    1W        W49934   8.700  24.309   0.013  0.1017 -0.1593 -0.2761
    1W        W49935  16.363  17.173   1.848 -0.1953 -0.2812 -0.1112
    1W        W49936   2.819  19.143   8.900 -0.2110  0.2145  0.1310
    1W        W49937   4.098  11.390   7.477 -0.1571 -0.1342 -0.1510
    1W        W49938  20.282  29.024   1.957 -0.0979 -0.0767  0.0098
    1W        W49939  28.803  29.081   8.416 -0.1054 -0.6066 -0.1130
    1W        W49940  24.003  15.634   1.737  0.0612 -0.2424  0.5880
    1W        W49941  19.818  15.973   1.592  0.0753 -0.2966  0.2167
    1W        W49942  16.709  27.855   8.170  0.1303 -0.1308  0.0283
    1W        W49943   3.863   4.383   6.973  0.0814 -0.0562 -0.1037
    1W        W49944  22.620  20.232   8.926 -0.0334  0.0271 -0.2461
    1W        W49945  15.034  13.121   8.876  0.0493  0.2367 -0.1176
    1W        W49946  10.632  10.810   1.026 -0.1015 -0.0050 -0.1228
    1W        W49947   9.872  11.794   1.730  0.3019  0.2170  0.3709
    1W        W49948  10.783  28.503   2.164 -0.2318 -0.3973 -0.2907
    1W        W49949  13.546  27.024   8.687  0.1877 -0.1091 -0.0312
    1W        W49950   5.130   9.426   9.033  0.1968  0.0101  0.0011
    1W        W49951  11.916  15.458   7.401 -0.0337 -0.1095 -0.6238
    1W        W49952   1.631   2.793   3.016  0.1116  0.2135  0.0192
    1W        W49953   9.032  14.747   6.721  0.0389  0.1988 -0.0194
    1W        W49954  29.616  16.754   8.245  0.0571  0.1627  0.0829
    1W        W49955  27.383  12.615   6.963  0.3074 -0.2011 -0.0496
    1W        W49956  23.688  22.919   6.365 -0.0103  0.1297  0.1536
    1W        W49957   2.873   1.704   2.533  0.0969  0.0607  0.1394
    1W        W49958   7.042  25.714   9.003  0.2546 -0.0758  0.0005
    1W        W49959  27.107  28.524   6.637 -0.2296  0.4161 -0.0803
    1W        W49960   5.377   0.899   1.572 -0.0673  0.0378  0.0784
    1W        W49961   1.436  27.743   8.502  0.1272 -0.2014  0.1693
    1W        W49962   5.653  24.665   6.918 -0.2363  0.1547  0.1147
    1W        W49963   9.537  12.863   7.998 -0.0163  0.0506  0.0418
    1W        W49964   9.777  21.894   6.954  0.1067 -0.1849  0.4137
    1W        W49965  16.924  10.945   1.835  0.0897  0.6172 -0.1693
    1W        W49966  23.002  18.731   2.378 -0.1926  0.2969  0.1624
    1W        W49967   4.713  24.465   7.780  0.0838 -0.3228  0.1449
    1W        W49968  17.798   0.479   2.857  0.2594 -0.3596 -0.0414
    1W        W49969   8.712  21.911   1.599 -0.1068 -0.2445 -0.3431
    1W        W49970  22.489   0.620   0.266  0.1794 -0.0076  0.0777
    1W        W49971  15.868  18.592   0.798 -0.1153 -0.1847 -0.1966
    1W        W49972  10.956   3.256   7.488 -0.2793 -0.2381  0.0598
    1W        W49973  20.774  12.168   1.933 -0.0186  0.3334 -0.2192
    1W        W49974   7.391  23.507   0.732  0.0617  0.1201  0.2939
    1W        W49975  18.000   0.508   8.531 -0.1300 -0.0978 -0.0800
    1W        W49976  24.978   6.690   8.252 -0.1708  0.1582 -0.0096
    1W        W49977  11.026   7.884   2.330 -0.0305  0.1082 -0.0682
    1W        W49978  25.968  25.145   0.042 -0.0130 -0.0150  0.2697
    1W        W49979   0.544   0.961   7.050  0.0284  0.0164 -0.0894
    1W        W49980  11.074   6.812   1.761  0.1083  0.1440 -0.1794
    1W        W49981   5.051   0.686   0.258  0.4020 -0.1871 -0.1307
    1W        W49982  27.327  11.125   9.296  0.0329 -0.0176 -0.1700
    1W        W49983   0.661  19.828   6.262 -0.2430 -0.1765  0.0218
    1W        W49984  22.536  26.926   7.002  0.0131 -0.0708 -0.0105
    1W        W49985  16.308   3.106   1.513  0.1234 -0.1945 -0.0386
    1W        W49986   6.391  24.624   1.316 -0.1325 -0.0620 -0.1016
    1W        W49987   1.233  19.295   7.451 -0.0467 -0.1737  0.0793
    1W        W49988   5.800  12.807   1.871  0.2042 -0.2119  0.1792
    1W        W49989   8.407   1.723   8.667  0.3108  0.3683 -0.1208
    1W        W49990  22.322   4.247   6.721 -0.1063  0.0575 -0.2135
    1W        W49991  13.326  26.915   8.242  0.0453  0.1483 -0.0681
    1W        W49992  19.647   0.444   6.828  0.3758  0.1191 -0.0905
    1W        W49993   0.760  27.837   2.555 -0.0713 -0.2174  0.0007
    1W        W49994  21.140   9.786   0.682 -0.0816 -0.2656  0.1246
    1W        W49995  23.700  17.773   1.787 -0.3967  0.0832  0.2851
    1W        W49996  12.631   8.307   1.615 -0.1249 -0.1072  0.2602
    1W        W49997  17.425  28.105   1.963 -0.2299 -0.0810  0.1889
    1W        W49998  22.261  24.352   1.319 -0.2297 -0.1573 -0.0763
    1W        W49999   2.942   8.278   8.836  0.0431  0.1071  0.4012
    1W        W50000  18.502   0.565   8.211 -0.0282 -0.0641  0.2133
    1W        W50001  21.841  12.517   9.434  0.1783 -0.0897 -0.1446
    1W        W50002   1.918  10.751   7.843  0.0491 -0.1109 -0.1448
    1W        W50003   0.739  23.600   2.687 -0.2580 -0.4301 -0.2260
    1W        W50004  20.585  18.537   8.023 -0.1016  0.0701 -0.0021
    1W        W50005  11.687  18.343   8.672  0.1579 -0.3163 -0.0352
    1W        W50006  29.657   4.637   2.017  0.0473  0.3022  0.0417
    1W        W50007  15.137  18.992   2.278 -0.0354  0.0290  0.3621
    1W        W50008  29.180  28.257   9.308  0.0719  0.1664  0.2881
    1W        W50009   4.143   3.528   0.829 -0.0633 -0.1496  0.2376
    1W        W50010  22.946  24.314   2.759 -0.0632  0.0295 -0.2848
    1W        W50011  10.161  28.392   2.029 -0.0318  0.0549 -0.3280
    1W        W50012  11.504  16.515   6.483 -0.2158  0.1292 -0.0583
    1W        W50013  17.163   3.173   2.592  0.2608 -0.0114 -0.1110
    1W        W50014   2.224  15.904   8.372  0.1540  0.3868 -0.1329
    1W        W50015  26.889  27.465   8.013 -0.0788  0.0350 -0.1478
    1W        W50016  20.230   3.627   0.757 -0.2096 -0.0818  0.2129
    1W        W50017  14.331   5.708   7.391  0.0759  0.2065  0.3890
    1W        W50018   6.415   5.574   8.123  0.4005 -0.3645  0.3067
    1W        W50019   5.019  17.543   5.968  0.0224  0.1255 -0.1802
    1W        W50020  18.080  16.459   1.208 -0.0832  0.0271 -0.1893
    1W        W50021  16.340   8.684   8.725 -0.0160 -0.0990 -0.0750
    1W        W50022   5.254  28.324   1.743  0.0175  0.0108  0.1166
    1W        W50023  27.183  27.433   8.927 -0.0950  0.1164 -0.0024
    1W        W50024   3.428   8.762   8.610  0.0430 -0.0218 -0.0187
    1W        W50025   7.860  21.613   6.223 -0.2191  0.1150  0.2814
    1W        W50026   4.431  25.503   0.221  0.3718  0.1589  0.0930
    1W        W50027  16.881  27.705   1.666  0.2975  0.0744  0.3479
    1W        W50028  21.553   4.031   2.406  0.2475 -0.2218  0.0151
    1W        W50029  20.879  14.425   9.393  0.1400  0.0835  0.1707
    1W        W50030  15.249  26.654   1.093 -0.3056 -0.1630 -0.2649
    1W        W50031   9.741  14.108   2.464  0.0607  0.3143 -0.0704
    1W        W50032   0.856   8.067   8.393 -0.0191  0.0391 -0.1358
    1W        W50033  22.481  27.804   7.137  0.0744  0.2049  0.2441
    1W        W50034   7.188   2.468   8.506  0.1074 -0.0681  0.0596
    1W        W50035   0.122  15.972   2.357  0.0930 -0.0887 -0.2592
    1W        W50036   0.137  16.722   1.825 -0.0840  0.1750  0.0970
    1W        W50037  27.093  19.894   7.871  0.1734  0.3261  0.1639
    1W        W50038   6.722  12.247   1.679  0.0791  0.0557  0.0126
    1W        W50039  10.327   4.342   4.202 -0.3125 -0.0842 -0.2799
    1W        W50040   4.137  27.732   8.265  0.0487  0.0399  0.1126
    1W        W50041  14.322  23.871   1.553 -0.0859 -0.1751 -0.0147
    1W        W50042  22.354  26.333   1.068  0.0213 -0.1370  0.2819
    1W        W50043  29.274  12.543   6.143 -0.1407  0.0478 -0.1408
    1W        W50044   3.763  13.022   7.173 -0.3461  0.0586 -0.1706
    1W        W50045  18.267  19.550   0.304  0.1256  0.0760 -0.1781
    1W        W50046  10.622   4.719   1.285 -0.0736  0.3291 -0.2023
    1W        W50047   9.355  18.030   0.473  0.0696 -0.0033  0.2327
    1W        W50048   2.033  13.419   2.271  0.1289 -0.1353  0.1187
    1W        W50049  18.926  19.217   2.059  0.2168  0.1544 -0.1418
    1W        W50050  25.922  14.712   9.007  0.0304 -0.1247 -0.1955
    1W        W50051  20.704  24.784   7.252  0.0549  0.5391 -0.0835
    1W        W50052  10.738   2.089   8.743  0.0046 -0.1116 -0.1802
    1W        W50053  29.402  20.680   2.112  0.3674  0.1800  0.0953
    1W        W50054   4.672  19.295   8.344 -0.0463 -0.0552 -0.0568
    1W        W50055  22.724  20.714   0.033 -0.2382 -0.1011 -0.1825
    1W        W50056  13.876  26.814   6.853 -0.0288 -0.0636  0.0418
    1W        W50057   1.479   9.437   8.985 -0.2545 -0.6914  0.0617
    1W        W50058  23.331   0.083   9.426  0.0357  0.0482  0.4059
    1W        W50059   7.790  28.455   1.792  0.1160 -0.3736 -0.1156
    1W        W50060  15.390  12.976   1.981  0.1497 -0.0751 -0.0722
    1W        W50061   4.896  18.221   1.466  0.1585  0.0160 -0.2227
    1W        W50062   9.575  17.259   0.105  0.3478 -0.0864  0.0002
    1W        W50063   9.221   1.188   2.598  0.0121  0.0378  0.1528
    1W        W50064  29.807  25.002   1.315  0.4389 -0.0654 -0.2063
    1W        W50065   5.624   2.027   8.854 -0.0971  0.1041 -0.0361
    1W        W50066  14.200   8.459   1.357 -0.0652 -0.1537  0.4000
    1W        W50067   2.555   2.272   8.273  0.1095  0.1020 -0.0173
    1W        W50068  13.275   6.239   0.249  0.3974 -0.0455  0.1241
    1W        W50069   1.816   0.084   7.138 -0.1603 -0.2463 -0.1832
    1W        W50070   9.818  26.774   1.668 -0.1827  0.1115 -0.2426
    1W        W50071   7.120   0.184   7.720  0.0296 -0.1331 -0.1152
    1W        W50072  29.239  28.017   2.873 -0.3165  0.3899  0.2444
    1W        W50073  14.950  28.022   2.869  0.1336  0.0481 -0.1224
    1W        W50074  15.530  19.388   7.746 -0.1102 -0.0330  0.1076
    1W        W50075  11.693  13.081   9.317 -0.2540 -0.0257  0.0539
    1W        W50076   4.365  15.857   8.959 -0.1868 -0.2383  0.1624
    1W        W50077   5.363  27.557   6.493  0.0406  0.0625 -0.1372
    1W        W50078  21.600   6.170   3.138 -0.3990  0.3070 -0.0106
    1W        W50079  18.809   8.161   7.043  0.0271  0.1153 -0.1232
    1W        W50080   4.266   3.849   3.176 -0.2259 -0.4145  0.1000
    1W        W50081  26.311   8.577   6.898  0.1237 -0.1006  0.1718
    1W        W50082   9.233  22.899   2.277 -0.0752 -0.0543 -0.1571
    1W        W50083  16.889  16.069   1.244  0.4267 -0.3200 -0.3979
    1W        W50084   9.118  14.615   1.216 -0.0875 -0.0303  0.1969
    1W        W50085   3.162   9.951   6.609  0.2522 -0.1411 -0.0726
    1W        W50086  24.405  29.487   6.581  0.1099  0.1170  0.1708
    1W        W50087  29.161  23.641   1.271  0.1606  0.0076  0.1169
    1W        W50088  23.803  26.522   6.554 -0.1058  0.1719 -0.0284
    1W        W50089  25.982   9.503   1.376  0.1093 -0.1556  0.0707
    1W        W50090   7.173  17.314   0.452 -0.2346  0.1254  0.0892
    1W        W50091   4.039  15.087   0.862 -0.2001  0.1019  0.0630
    1W        W50092  18.944   3.893   7.897  0.0551 -0.1033  0.0922
    1W        W50093  20.456  15.425   7.402 -0.2197 -0.1191 -0.1352
    1W        W50094  26.960  21.917   2.102  0.1405  0.0837  0.1664
    1W        W50095   1.066  21.377   7.593  0.0456 -0.0564 -0.0087
    1W        W50096  17.673  21.118   2.118 -0.2353 -0.1601  0.1953
    1W        W50097   5.775   8.328   0.247  0.3393  0.1638 -0.0649
    1W        W50098   1.404   6.444   7.664  0.2433 -0.1296  0.1259
    1W        W50099  14.827   7.557   8.444 -0.0525 -0.0199 -0.1747
    1W        W50100  23.335  20.312   2.391  0.0314 -0.2119 -0.3817
    1W        W50101  10.487   3.313   4.342 -0.2209 -0.0238 -0.0408
    1W        W50102  11.507  11.239   1.551  0.2732 -0.2264 -0.4627
    1W        W50103  15.363  17.376   8.220  0.0878 -0.2118  0.0684
    1W        W50104   8.688   0.394   2.194  0.2366  0.0631  0.2143
    1W        W50105   0.014   0.145   8.501  0.1995 -0.1188 -0.2559
    1W        W50106  17.052  28.365   1.031 -0.1457 -0.0956  0.2915
    1W        W50107  26.195   5.376   1.596 -0.0374  0.2313  0.0865
    1W        W50108  10.851  18.420   9.114  0.2378  0.0092  0.1063
    1W        W50109  13.069  15.143   0.357  0.1210 -0.1007 -0.2477
    1W        W50110  22.421  11.156   6.860  0.2675 -0.3009 -0.1766
    1W        W50111   9.181   0.721   3.447 -0.0436 -0.3436 -0.0875
    1W        W50112  21.627  19.880   8.052  0.0987 -0.1466 -0.1915
    1W        W50113  15.577  12.199   0.564 -0.0834 -0.0977 -0.0961
    1W        W50114   1.385  12.747   8.166  0.2110 -0.1895 -0.2975
    1W        W50115  18.130  17.706   1.693 -0.5090  0.2299 -0.0433
    1W        W50116  27.530  12.431   1.826  0.3811 -0.0588 -0.0370
    1W        W50117  16.432  11.329   1.585 -0.0601  0.2107  0.1388
    1W        W50118  26.659  16.029   9.348 -0.0673  0.0735  0.1582
    1W        W50119   0.846  26.065   0.118  0.2485 -0.0598 -0.0333
    1W        W50120  27.804  27.060   8.868 -0.0840  0.0599  0.1865
    1W        W50121  22.838  28.136   2.064  0.3594 -0.1891  0.1220
    1W        W50122   7.584  17.762   0.485  0.0502  0.2143  0.1287
    1W        W50123  15.263  28.402   6.840  0.0819  0.0823  0.0580
    1W        W50124  23.609   3.719   0.961 -0.1425  0.0649 -0.2587
    1W        W50125   0.170   2.862   8.763 -0.1588 -0.1791  0.0026
    1W        W50126   6.743  21.745   0.736  0.0112 -0.1056 -0.0054
    1W        W50127  15.820  19.632   0.445 -0.0917  0.1371 -0.0295
    1W        W50128  24.733  12.952   0.399 -0.2955  0.0086  0.0251
    1W        W50129   1.807   1.039   1.283 -0.2902 -0.0131  0.1807
    1W        W50130  27.751  27.552   8.717 -0.3044 -0.0921 -0.1817
    1W        W50131  28.712  14.404   9.010  0.2942  0.0858  0.3683
    1W        W50132  28.654   2.115   9.054 -0.0588 -0.0151 -0.0673
    1W        W50133  24.835   0.191   8.722  0.2809 -0.4088  0.2177
    1W        W50134  18.208   9.170   1.083  0.1202  0.1756  0.0023
    1W        W50135  14.044  11.698   0.143 -0.1547 -0.0220  0.3809
    1W        W50136   8.950  28.965   7.949 -0.1118 -0.2272 -0.0413
    1W        W50137  22.073   9.707   8.505  0.0255  0.2557 -0.1027
    1W        W50138   9.335   9.483   8.319 -0.1053  0.0611  0.1463
    1W        W50139  17.217  24.488   6.898 -0.0068  0.0044 -0.0424
    1W        W50140  24.714   7.459   2.258  0.0068 -0.0081 -0.2487
    1W        W50141   6.332  22.211   0.467 -0.1263 -0.0952 -0.2152
    1W        W50142  20.775  23.673   2.995  0.0646  0.0598 -0.2516
    1W        W50143  16.087   0.994   0.007 -0.2171  0.0144 -0.3003
    1W        W50144   3.028  12.737   5.955 -0.1606 -0.0941 -0.2565
    1W        W50145   8.122   5.729   8.254  0.0293  0.3210 -0.1553
    1W        W50146  12.984   9.669   0.667  0.0527 -0.2558  0.0779
    1W        W50147   1.763  20.827   6.961 -0.0100  0.0429  0.1379
    1W        W50148  27.065  15.511   7.781  0.0626 -0.2822  0.1926
    1W        W50149   5.396  24.006   8.078 -0.1882 -0.0745 -0.1297
    1W        W50150   2.626  11.800   9.232  0.2618  0.0185 -0.1086
    1W        W50151  23.675   5.660   7.206  0.1075 -0.1142 -0.1944
    1W        W50152   4.193  14.237   6.207  0.0495 -0.0251 -0.0407
    1W        W50153  14.158  27.942   7.630  0.2754 -0.2332  0.0569
    1W        W50154   7.371   8.853   2.759  0.2012 -0.1347 -0.3015
    1W        W50155  16.454   9.595   6.983 -0.4360  0.4340  0.0390
    1W        W50156  14.606  23.529   6.346  0.3293 -0.1625 -0.0457
    1W        W50157  29.738   2.511   8.514 -0.1986 -0.1030  0.0947
    1W        W50158  20.264  18.672   2.604  0.0557  0.0341  0.1697
    1W        W50159   8.512   0.083   7.739  0.0794 -0.1250  0.2148
    1W        W50160   2.677  13.995   5.955  0.0712  0.1197  0.2671
    1W        W50161  27.724  17.023   1.903  0.1206 -0.0212 -0.1366
    1W        W50162  12.830   6.217   0.061 -0.0611 -0.0877  0.1832
    1W        W50163  26.157   5.875   1.484  0.1331  0.0857  0.0182
    1W        W50164   7.479  20.756   6.670  0.2506 -0.0860 -0.2719
    1W        W50165  14.553   7.113   1.100 -0.0766 -0.0450 -0.1174
    1W        W50166  13.301  15.013   8.742  0.2394 -0.0719 -0.3810
    1W        W50167   6.434  27.727   8.525 -0.1316 -0.0888 -0.4869
    1W        W50168   3.594  25.759   0.921 -0.3841 -0.0427  0.0275
    1W        W50169   0.761  21.679   1.620 -0.2311  0.0155  0.1158
    1W        W50170  26.729  28.284   7.976  0.3118  0.2400 -0.0227
    1W        W50171  27.546  18.613   3.039  0.0453  0.1370 -0.0131
    1W        W50172   8.934  26.715   9.244 -0.0611 -0.1384  0.1433
    1W        W50173  17.957   5.899   0.752 -0.3818  0.3661  0.0498
    1W        W50174  22.588  10.392   7.175 -0.1594  0.2627 -0.2382
    1W        W50175  19.856  10.881   7.067 -0.3700 -0.0443 -0.0793
    1W        W50176  12.585  19.433   0.327 -0.0699  0.1220 -0.0186
    1W        W50177  21.923  22.367   2.002  0.0840  0.1548  0.2219
    1W        W50178  28.376   6.927   1.422  0.1804 -0.1745 -0.3139
    1W        W50179  27.338   1.167   7.161  0.0710 -0.1956 -0.2597
    1W        W50180  24.335  15.158   0.910  0.0427  0.1185  0.0086
    1W        W50181  10.852  26.957   7.166 -0.0112  0.0906 -0.0362
    1W        W50182  27.688  18.155   1.776  0.2177  0.0502 -0.1261
    1W        W50183  15.795   3.520   1.566  0.0440  0.0785 -0.0345
    1W        W50184  19.441  24.146   2.372 -0.1910 -0.0648 -0.0800
    1W        W50185  18.012   8.799   1.299 -0.2683  0.1057  0.3675
    1W        W50186  14.163  16.203   7.383  0.3160 -0.2714  0.0383
    1W        W50187   0.492  28.162   2.118  0.0236 -0.2240 -0.1166
    1W        W50188   5.484   0.240   8.624 -0.0934  0.1043 -0.0237
    1W        W50189  27.734  28.645   2.886  0.1823 -0.0536 -0.0373
    1W        W50190  19.430   4.335   8.974  0.0186  0.1743 -0.0849
    1W        W50191   6.161  29.810   2.056 -0.2574  0.1237  0.0985
    1W        W50192  17.464  11.752   2.279 -0.0283 -0.3125 -0.0188
    1W        W50193  21.616  21.804   3.265  0.1878 -0.2202 -0.1403
    1W        W50194   1.587   7.706   2.750 -0.2203  0.2686 -0.1180
    1W        W50195   7.724  28.855   8.597 -0.2012  0.1181  0.2746
    1W        W50196  10.893  15.549   0.911  0.2075  0.0562  0.2191
    1W        W50197  29.427   8.787   7.770 -0.1259 -0.0269  0.2359
    1W        W50198   7.639   4.631   6.467  0.1331 -0.1214 -0.0521
    1W        W50199  12.347   4.758   0.314 -0.1472 -0.0544  0.0059
    1W        W50200   3.665  15.826   1.498 -0.0880 -0.2379  0.0389
    1W        W50201   2.762  29.438   8.039  0.2639  0.2324  0.0818
    1W        W50202  17.715  17.514   9.034  0.3074  0.1710  0.0569
    1W        W50203  26.851  19.688   2.019  0.1521  0.3468 -0.3098
    1W        W50204   3.786  20.867   8.327  0.1339 -0.2238  0.2425
    1W        W50205  17.724  15.815   7.000 -0.0722 -0.1061  0.1429
    1W        W50206  17.495  22.931   0.379 -0.2049  0.0052 -0.1312
    1W        W50207  26.275  20.357   1.424 -0.3784 -0.1803 -0.2750
    1W        W50208   1.007  29.807   0.264 -0.0287 -0.1189 -0.3288
    1W        W50209  17.110  22.795   0.034  0.0884 -0.0836 -0.3430
    1W        W50210   6.007   9.452   8.683  0.1096 -0.1206  0.0339
    1W        W50211   1.424   3.218   7.826  0.1340  0.1673  0.1486
    1W        W50212   6.643  18.844   8.556 -0.2387  0.0238  0.0111
    1W        W50213   8.743  24.786   7.806 -0.3196 -0.3612  0.3522
    1W        W50214  29.148  22.589   9.189 -0.2042 -0.0544 -0.1402
    1W        W50215  28.517  21.002   1.029 -0.0883  0.1762 -0.0983
    1W        W50216  24.690  12.531   7.105  0.3557 -0.0326 -0.0192
    1W        W50217  23.181   2.420   1.334 -0.4853  0.0249 -0.1529
    1W        W50218  26.125   9.601   6.057 -0.1751 -0.0235 -0.1322
    1W        W50219  29.767   9.507   3.049 -0.2519 -0.2876  0.0280
    1W        W50220  18.468   2.008   2.549 -0.0259  0.1258 -0.0859
    1W        W50221   0.813  28.126   7.453  0.1256  0.2607  0.0590
    1W        W50222  26.211  12.929   0.748 -0.2901  0.0749  0.0916
    1W        W50223  25.480  18.947   1.145  0.0685  0.4338  0.2887
    1W        W50224  17.575   0.888   2.567 -0.1560  0.2156  0.2410
    1W        W50225   3.919   4.124   0.024  0.0710 -0.1674 -0.1793
    1W        W50226  18.486   7.479   9.052  0.0126  0.0551  0.1568
    1W        W50227   7.515   8.566   1.164 -0.2398  0.1163 -0.0327
    1W        W50228  17.136   6.321   0.850 -0.1583 -0.0795 -0.0292
    1W        W50229  27.651  23.095   1.794  0.1158  0.1881  0.0499
    1W        W50230   9.054   4.225   8.630 -0.1194 -0.0342 -0.0386
    1W        W50231  21.346  19.460   2.787  0.2559 -0.0175 -0.2421
    1W        W50232   4.045  29.248   0.896 -0.3237  0.1434  0.1321
    1W        W50233  22.370  10.158   8.319  0.3063  0.0317  0.0004
    1W        W50234  27.727   8.417   2.162 -0.1249 -0.0651 -0.2752
    1W        W50235   2.955  18.637   6.548  0.0759  0.0042  0.0138
    1W        W50236  26.879   4.074   7.197  0.1621 -0.0196 -0.0928
    1W        W50237  24.713  10.402   8.797  0.3840 -0.1094  0.1907
    1W        W50238   6.097   7.438   1.390  0.0024  0.1198  0.1054
    1W        W50239  11.751  13.576   1.184 -0.1066  0.0571 -0.1647
    1W        W50240  26.307  10.568   0.453  0.1880  0.0569  0.1010
    1W        W50241  16.271  21.940   1.447 -0.1326 -0.1941 -0.2738
    1W        W50242   9.240  29.114   7.557 -0.1436 -0.0446 -0.3101
    1W        W50243   1.759  22.448   0.093 -0.1350  0.0326  0.0236
    1W        W50244   2.598   4.439   1.459  0.2946  0.2001 -0.2435
    1W        W50245   9.776  28.329   2.399  0.0831  0.0340  0.4017
    1W        W50246  28.363  17.887   7.722  0.2000  0.0596  0.0223
    1W        W50247   9.973  26.971   8.643 -0.1287  0.0363  0.3101
    1W        W50248   4.873   3.332   1.488 -0.0672 -0.2093 -0.0819
    1W        W50249  14.513  10.397   9.100 -0.1229  0.2815 -0.1554
    1W        W50250   2.320   2.881   6.438 -0.0476 -0.0384  0.3798
    1W        W50251  10.231   7.007   3.645 -0.1238  0.1171 -0.0203
    1W        W50252  18.718  19.643   9.428 -0.0892  0.0425 -0.3055
    1W        W50253   0.091  26.690   1.736  0.1220  0.0088  0.0490
    1W        W50254  11.549   3.200   0.697  0.2726  0.0532 -0.2167
    1W        W50255  24.142  21.025   2.389 -0.1562 -0.2546  0.2083
    1W        W50256  21.229  16.487   8.321 -0.4132  0.0532 -0.1586
    1W        W50257  20.431  13.674   9.165  0.2554  0.0556 -0.0761
    1W        W50258  20.358   8.764   2.979  0.2865  0.0898  0.0689
    1W        W50259  16.880   6.671   9.147 -0.0584 -0.0195 -0.0276
    1W        W50260  17.661   7.452   1.125  0.0113  0.0696  0.3109
    1W        W50261  16.037   7.227   9.253 -0.0578 -0.0748 -0.3289
    1W        W50262  29.771   9.466   9.253  0.1705 -0.1550 -0.3112
    1W        W50263  12.035   6.179   2.624 -0.1398  0.0114 -0.2093
    1W        W50264  16.100  29.058   2.157  0.2437  0.0744 -0.0339
    1W        W50265  10.450   6.212   2.174 -0.1631 -0.1495 -0.1895
    1W        W50266   4.175  18.383   8.247 -0.2527  0.0320  0.0359
    1W        W50267  18.600  25.350   2.651  0.1730  0.1120 -0.2499
    1W        W50268  23.094  16.567   2.348 -0.1266 -0.0927 -0.3226
    1W        W50269  11.525  29.702   7.632  0.0562  0.0216 -0.1149
    1W        W50270   6.462  29.535   1.115  0.0356 -0.0073 -0.2461
    1W        W50271  21.760   1.893   7.868 -0.0720 -0.1041 -0.1740
    1W        W50272  28.806   4.816   8.886  0.1402  0.2248  0.2662
    1W        W50273  20.537  23.166   8.437  0.1059  0.0288 -0.0295
    1W        W50274  26.839  24.155   0.470  0.0156  0.0454 -0.3419
    1W        W50275  21.612   9.558   0.027 -0.0569  0.0739 -0.2778
    1W        W50276   5.457  26.587   6.805  0.0297 -0.2540  0.1243
    1W        W50277   1.470  23.905   6.905 -0.1064 -0.1086 -0.2012
    1W        W50278  10.294   5.948   1.325 -0.1722 -0.2075  0.0328
    1W        W50279  26.324  18.652   7.622 -0.1180  0.1875  0.0985
    1W        W50280  19.312  16.105   8.699  0.0944 -0.0136  0.1249
    1W        W50281  21.735   4.763   8.673 -0.0134 -0.1348  0.0329
    1W        W50282   9.156  17.256   0.859  0.1030 -0.1491  0.0127
    1W        W50283   5.887   4.309   0.730 -0.0251 -0.0985 -0.2540
    1W        W50284  21.423  17.779   1.576  0.2082 -0.0765 -0.3244
    1W        W50285  22.902  29.679   1.110 -0.0540 -0.1507  0.0905
    1W        W50286  27.718   5.203   7.708 -0.0301 -0.0817  0.0054
    1W        W50287  26.029   8.838   6.369 -0.0733  0.0643 -0.4063
    1W        W50288   1.595  10.153   9.200 -0.0905 -0.0722  0.0481
    1W        W50289   7.364  12.504   8.107  0.1586 -0.1291  0.0207
    1W        W50290   8.962  13.744   2.845  0.0675 -0.1654  0.1509
    1W        W50291  25.503   1.063   2.204 -0.1477  0.1409  0.3126
    1W        W50292  11.062  27.138   9.107 -0.0063 -0.1229  0.0039
    1W        W50293   0.042  10.690   6.829 -0.0185 -0.0531 -0.0007
    1W        W50294  20.055  20.495   0.118 -0.0248 -0.3539 -0.0891
    1W        W50295   4.420   6.285   0.529 -0.0317 -0.2601  0.1763
    1W        W50296  10.424  11.644   0.317 -0.2995  0.1684  0.0767
    1W        W50297   1.018  20.641   7.890 -0.0471 -0.2271  0.2201
    1W        W50298   7.117  10.846   0.432 -0.0605 -0.1549  0.0536
    1W        W50299   1.351  18.348   0.927  0.1899  0.0738  0.3419
    1W        W50300  28.460  27.178   6.854  0.0576 -0.0304 -0.0028
    1W        W50301   4.044   6.968   2.364  0.0295 -0.5373  0.0282
    1W        W50302  21.230   3.929   8.547 -0.4463  0.0008  0.0210
    1W        W50303   3.012  25.124   6.293 -0.1540 -0.1208 -0.0950
    1W        W50304   2.898   1.847   8.143  0.0700 -0.0687 -0.1747
    1W        W50305  10.439  13.260   7.777 -0.1257  0.0336 -0.0752
    1W        W50306  27.194  17.308   1.452  0.0254 -0.0715  0.0765
    1W        W50307  12.065  10.936   2.094  0.2095  0.1555 -0.0950
    1W        W50308   3.478  21.887   2.115 -0.1685  0.1536  0.0316
    1W        W50309   6.613  22.209   0.873 -0.1148 -0.1259 -0.1520
    1W        W50310   0.697  22.136   1.548  0.4028  0.2032  0.1007
    1W        W50311  29.775  22.638   1.956 -0.3923 -0.0384 -0.1002
    1W        W50312   9.049  17.132   6.968  0.3089  0.4222 -0.2168
    1W        W50313  21.882  26.974   1.691 -0.0697 -0.2532  0.0902
    1W        W50314   1.135   2.676   2.078  0.1754 -0.0154 -0.0289
    1W        W50315  25.187  22.582   7.124 -0.0394 -0.1401  0.1315
    1W        W50316  19.187  22.318   0.805  0.1490  0.1208 -0.0635
    1W        W50317   2.120   0.020   8.542  0.2086  0.4908 -0.0146
    1W        W50318  16.244   0.361   1.239  0.1479 -0.1683 -0.3494
    1W        W50319   1.156  23.630   8.833  0.2548 -0.2493  0.0340
    1W        W50320   5.001  14.904   7.242  0.0351 -0.3439  0.0514
    1W        W50321  21.398  12.835   8.589 -0.1008  0.2596  0.1508
    1W        W50322  27.023  23.280   0.405  0.0923  0.1013 -0.0011
    1W        W50323   1.052  23.241   2.294 -0.0042 -0.0539  0.0721
    1W        W50324  19.704   9.772   2.009  0.1151  0.0309 -0.1312
    1W        W50325   5.434  13.868   0.596 -0.0250  0.0247 -0.1067
    1W        W50326  27.812   3.499   9.089 -0.1332  0.1476 -0.0612
    1W        W50327  27.705  22.887   6.903 -0.0803  0.3260 -0.0691
    1W        W50328   6.655  25.106   2.050  0.2654  0.2502 -0.0349
    1W        W50329  16.940  28.522   9.036 -0.3185  0.0786 -0.1091
    1W        W50330  19.520   6.796   2.192  0.1469 -0.3793 -0.0589
    1W        W50331  25.638  13.044   0.123  0.0359 -0.0915  0.2346
    1W        W50332  13.548  18.303   0.403 -0.0843 -0.5428 -0.0121
    1W        W50333  22.337  13.692   8.772 -0.3464 -0.0742  0.2096
    1W        W50334   4.779  18.606   6.155  0.0303 -0.0977 -0.2288
    1W        W50335   1.430  13.676   1.321 -0.0658 -0.0631 -0.1189
    1W        W50336  21.429  23.507   0.851 -0.0373  0.0439 -0.2537
    1W        W50337  10.941  17.144   6.934  0.1661  0.0335 -0.1004
    1W        W50338  26.097  10.740   9.263  0.3629  0.1002  0.0270
    1W        W50339   0.161   2.380   7.179  0.1842  0.0080  0.0842
    1W        W50340   6.622   2.375   6.804 -0.1639  0.0347  0.0580
    1W        W50341  28.624  29.099   0.750 -0.1682  0.0546  0.0347
    1W        W50342  16.758  23.653   7.823 -0.0140  0.4503  0.0447
    1W        W50343  17.124  13.108   2.430  0.1999 -0.3031  0.1200
    1W        W50344  26.012   4.975   1.341  0.0280 -0.2374  0.0220
    1W        W50345   2.207  18.585   5.706 -0.0576  0.0960  0.0491
    1W        W50346   8.655  21.422   7.511  0.2704 -0.1478 -0.1278
    1W        W50347   4.793   1.622   2.110 -0.1035 -0.0863  0.1819
    1W        W50348  27.211  23.441   7.936 -0.2450 -0.3172  0.0092
    1W        W50349  26.192   6.050   9.241  0.0631  0.3433 -0.0308
    1W        W50350  20.766  11.954   6.437 -0.3312  0.1014  0.0090
    1W        W50351  21.351  26.355   0.676  0.0789 -0.1238 -0.0308
    1W        W50352   7.332  12.876   1.774 -0.0250  0.0190 -0.0117
    1W        W50353  23.460  20.751   1.060 -0.0629  0.0683  0.4141
    1W        W50354   3.721  16.444   8.921 -0.0581 -0.0759 -0.0287
    1W        W50355  11.674  13.446   7.552  0.1831  0.1110 -0.1349
    1W        W50356  28.871  26.250   1.917  0.1602 -0.1195  0.0845
    1W        W50357  13.546  13.476   9.104  0.1527 -0.0944 -0.2657
    1W        W50358  20.960  13.072   7.954  0.1170 -0.0242  0.1115
    1W        W50359  11.989  19.561   2.513  0.0174 -0.0985  0.1039
    1W        W50360  10.091   2.272   1.964  0.3015 -0.0881  0.0616
    1W        W50361  19.209   1.689   0.846 -0.1609  0.1240 -0.2861
    1W        W50362   4.593  25.758   0.679  0.2687  0.0278  0.0087
    1W        W50363  17.099  28.897   8.713  0.0974 -0.0506 -0.0619
    1W        W50364  10.190   0.418   2.206  0.0492  0.0936  0.2252
    1W        W50365   3.009   2.248   6.777  0.0706 -0.1690  0.0557
    1W        W50366   7.041   9.698   1.141  0.2406 -0.1955  0.0592
    1W        W50367  29.005  10.358   2.271 -0.3210 -0.2747 -0.0453
    1W        W50368  18.323  25.683   7.506 -0.4667  0.2406  0.0990
    1W        W50369   1.609  10.767   7.405 -0.1814  0.1157  0.1791
    1W        W50370   7.931  19.976   7.112 -0.1689  0.1162 -0.0273
    1W        W50371  15.223  18.869   0.027  0.4370  0.3598 -0.0716
    1W        W50372   3.451  27.261   2.565 -0.4286  0.0303 -0.1537
    1W        W50373   6.217  19.257   6.525  0.0332  0.1047 -0.0042
    1W        W50374  13.869   7.589   9.309  0.0300  0.1913 -0.2792
    1W        W50375  18.281  24.004   2.861 -0.0407 -0.0509  0.1780
    1W        W50376  16.710  22.124   8.030 -0.1106 -0.0795  0.1691
    1W        W50377  25.947   6.795   6.957 -0.0088 -0.0718 -0.2225
    1W        W50378   7.195  12.360   0.103  0.0953 -0.0472  0.0254
    1W        W50379   6.452  10.578   0.700 -0.1283  0.0013  0.2358
    1W        W50380  11.480  16.304   1.116  0.1043  0.1382  0.1021
    1W        W50381  28.615  23.889   8.370  0.2360  0.1055 -0.1009
    1W        W50382  23.620  25.009   8.626  0.0073  0.1450 -0.1913
    1W        W50383  20.614   1.281   9.174 -0.2324  0.0437 -0.1395
    1W        W50384  13.627   8.665   8.658 -0.0348  0.2282 -0.1927
    1W        W50385  19.217   1.797   1.562 -0.1659  0.0445  0.1130
    1W        W50386  19.696  18.808   7.239  0.0366 -0.1394  0.0761
    1W        W50387   6.793  14.069   1.457  0.1473  0.1261 -0.0681
    1W        W50388  18.044   3.819   1.822  0.0502  0.2216  0.3271
    1W        W50389  26.852  14.784   6.522  0.1702  0.0142 -0.0531
    1W        W50390  17.524  12.598   0.626  0.1213  0.0795  0.2257
    1W        W50391  21.190   5.791   8.635 -0.0083  0.0363  0.0924
    1W        W50392  27.791   4.305   3.091  0.1858 -0.2351 -0.0233
    1W        W50393   5.247  13.172   6.312  0.0657  0.3176 -0.1729
    1W        W50394   1.371  21.434   9.280  0.0664  0.0255  0.1921
    1W        W50395  10.093  20.505   6.609  0.0594 -0.0893 -0.0695
    1W        W50396  18.014   1.406   7.975 -0.0937 -0.1408  0.1605
    1W        W50397  20.795  16.214   0.070 -0.0091 -0.3773  0.0862
    1W        W50398  18.977  21.843   8.705  0.1313 -0.2121 -0.1129
    1W        W50399   6.386  17.848   6.479  0.0920  0.0733  0.1353
    1W        W50400   6.086   0.587   2.462  0.0518 -0.3328  0.1331
    1W        W50401  20.338  23.407   1.784  0.1743  0.2525 -0.4729
    1W        W50402   1.413  16.912   8.174 -0.0256  0.2292  0.0876
    1W        W50403  28.755  15.990   7.472  0.1337  0.1733  0.0272
    1W        W50404   9.635   8.046   0.680 -0.0441  0.4134  0.0939
    1W        W50405   2.397  10.257   1.834 -0.0947 -0.5132 -0.1032
    1W        W50406  23.067  14.203   8.576  0.0547 -0.1610  0.0376
    1W        W50407  12.648  19.334   0.824 -0.1399  0.2703 -0.0530
    1W        W50408  20.407  28.626   0.401  0.1742 -0.0001 -0.0023
    1W        W50409  20.802  23.800   9.205  0.0478  0.1850  0.3283
    1W        W50410   7.747  17.910   7.226 -0.4618  0.1695  0.2598
    1W        W50411  12.882   5.809   0.375 -0.2651 -0.1283  0.1751
    1W        W50412  14.249   7.742   0.210  0.1848  0.1143 -0.1865
    1W        W50413  16.999   4.214   6.737  0.0399  0.0890 -0.1430
    1W        W50414  29.756   7.708   2.193 -0.0072  0.1732 -0.0941
    1W        W50415  18.260   1.069   1.538 -0.2495  0.1914  0.1909
    1W        W50416  16.356   2.422   7.722 -0.0975 -0.4004  0.1055
    1W        W50417  25.508   3.739   9.280 -0.2795 -0.1154 -0.0981
    1W        W50418  25.469  28.897   3.284 -0.0010  0.0668 -0.0293
    1W        W50419  16.977  23.679   3.078  0.1144  0.3583 -0.0447
    1W        W50420  13.632  17.727   1.310  0.1191  0.1710  0.0220
    1W        W50421   4.827   7.206   8.459 -0.1671  0.0256 -0.0854
    1W        W50422   8.023  26.527   7.091 -0.0878  0.3969  0.2546
    1W        W50423   4.037  25.604   5.806  0.2541  0.1646 -0.1562
    1W        W50424   4.444  16.591   6.410  0.2508  0.1112  0.1203
    1W        W50425  24.819  16.760   6.299  0.1976 -0.1508 -0.1809
    1W        W50426  25.041  27.375   0.443  0.0792  0.4563  0.1059
    1W        W50427   8.449  16.015   1.049 -0.2777 -0.0644  0.0687
    1W        W50428   9.582  27.742   7.538  0.0438  0.0898 -0.2078
    1W        W50429   7.792  22.019   7.984  0.4207 -0.0401  0.1266
    1W        W50430   3.569   0.597   2.371 -0.2183 -0.1796 -0.3241
    1W        W50431  13.288  20.227   0.688  0.1524 -0.4244 -0.3119
    1W        W50432  13.005  19.436   9.386  0.1173  0.1323 -0.0333
    1W        W50433  19.047  28.356   7.540  0.1370  0.2234  0.0728
    1W        W50434  26.811  20.935   8.892  0.1781  0.1198  0.0159
    1W        W50435   4.082   3.512   2.016  0.1334  0.2024  0.2004
    1W        W50436   5.601  21.919   8.653 -0.1366  0.1745 -0.0670
    1W        W50437   4.929  10.911   0.014 -0.1487  0.1055 -0.1751
    1W        W50438  18.594  14.601   0.863 -0.1033  0.0558 -0.0496
    1W        W50439  21.174  15.511   7.524 -0.1821  0.2110  0.3443
    1W        W50440  19.447  15.252   8.909 -0.0024  0.1743 -0.1961
    1W        W50441   7.652  28.714   0.163  0.3188 -0.1602 -0.1951
    1W        W50442  10.901   5.786   8.643 -0.2024  0.0327  0.3693
    1W        W50443   8.762  12.231   8.431 -0.2087 -0.0265 -0.0332
    1W        W50444  13.741  21.829   0.589  0.1106 -0.0516  0.1793
    1W        W50445   1.229  27.900   7.294  0.0264  0.1556  0.1691
    1W        W50446   2.755  18.567   7.107 -0.0819  0.1819  0.3363
    1W        W50447  19.121  25.585   2.753  0.1932 -0.1061 -0.0012
    1W        W50448   6.479   9.437   1.876  0.3311  0.0937 -0.0450
    1W        W50449  13.863  29.280   7.199 -0.0818 -0.1806 -0.0763
    1W        W50450   1.978  19.718   6.350 -0.2875  0.1086  0.1731
    1W        W50451  25.017  13.846   1.252  0.0500  0.0419  0.1767
    1W        W50452  12.554  20.725   8.551 -0.1685  0.2527 -0.3286
    1W        W50453   7.642   5.878   1.742 -0.0146  0.2458 -0.0437
    1W        W50454  20.395  23.693   8.981 -0.1236 -0.0306  0.2898
    1W        W50455  29.544  11.629   8.532 -0.0595  0.0896  0.1700
    1W        W50456  14.960   7.758   1.944  0.0337 -0.1973 -0.1617
    1W        W50457  19.884  25.303   6.933 -0.0117 -0.0387 -0.0789
    1W        W50458   3.883   8.037   9.068 -0.0191 -0.1233 -0.0721
    1W        W50459   3.083  10.421   6.821  0.2891 -0.0575 -0.0431
    1W        W50460  29.328   7.751   7.994  0.4820 -0.0036  0.1720
    1W        W50461  24.482  12.454   6.175  0.0365  0.2483 -0.0538
    1W        W50462  11.131  18.687   0.834 -0.2010 -0.0496  0.0055
    1W        W50463  18.248  12.510   8.072  0.0476  0.1353 -0.1707
    1W        W50464  25.549  12.093   2.339  0.2624  0.1846 -0.1348
    1W        W50465  15.667  12.268   7.730  0.1235  0.3132 -0.2444
    1W        W50466  15.929   1.158   2.549 -0.2812 -0.0443  0.0539
    1W        W50467   2.651  26.943   7.787 -0.1138  0.1546 -0.1172
    1W        W50468   8.247  23.073   1.282  0.0053 -0.4707  0.0531
    1W        W50469  22.571  23.496   1.783  0.1856 -0.0746  0.0933
    1W        W50470  17.849   0.419   5.964 -0.1757 -0.2476 -0.2099
    1W        W50471  11.526   1.413   2.510  0.2677 -0.2567  0.0320
    1W        W50472  15.274   3.494   1.528 -0.4529  0.1987 -0.1480
    1W        W50473  29.008   9.842   2.123 -0.0743  0.0549 -0.1925
    1W        W50474   6.110  29.257   1.994  0.1828 -0.2803 -0.2603
    1W        W50475   8.786  16.803   8.479 -0.1615  0.0812 -0.0182
    1W        W50476   9.389  15.973   1.377  0.2821 -0.0596 -0.0719
    1W        W50477  23.791  29.134   6.955 -0.2709 -0.0455 -0.1306
    1W        W50478   4.073  28.512   2.585 -0.1793  0.3051  0.0301
    1W        W50479   5.182  22.095   6.270  0.4719 -0.1074 -0.0840
    1W        W50480  18.245   7.892   8.572  0.2270 -0.0494  0.0359
    1W        W50481  26.433  22.463   7.076  0.1939 -0.0477 -0.1863
    1W        W50482  22.651  10.249   2.712 -0.4130 -0.0383  0.2277
    1W        W50483  26.569   6.437   2.928  0.3336  0.1865 -0.1551
    1W        W50484  14.098  22.243   0.634  0.1467 -0.3378 -0.0150
    1W        W50485  16.611  28.574   2.842 -0.1560 -0.1083 -0.0390
    1W        W50486   3.018  21.269   7.358  0.2012  0.3573  0.1049
    1W        W50487   5.925  13.017   1.376  0.2854  0.5529  0.4777
    1W        W50488   9.364   8.261   2.824  0.0669 -0.1554 -0.2625
    1W        W50489   2.613  12.999   6.014  0.0544  0.3354  0.0405
    1W        W50490  24.383  12.663   8.281 -0.1470  0.0132 -0.0062
    1W        W50491  22.771  25.730   7.551  0.3311 -0.2086  0.2229
    1W        W50492   5.996  14.817   1.150  0.2587 -0.0602  0.3513
    1W        W50493  11.307  13.886   2.083 -0.0351  0.4919  0.1083
    1W        W50494  13.705   6.274   8.950  0.1820 -0.3822 -0.0768
    1W        W50495  11.322  12.659   7.590  0.3521 -0.1551 -0.0018
    1W        W50496  18.230   5.365   8.146 -0.0264 -0.0854  0.1835
    1W        W50497  22.376   6.903   9.178  0.2439  0.1322  0.0560
    1W        W50498   8.098   7.954   0.835 -0.0456  0.0358  0.0015
    1W        W50499  15.755   7.161   3.006  0.2709 -0.4171 -0.0631
    1W        W50500  17.156   5.830   6.407  0.3270  0.0277  0.0304
    1W        W50501  21.857   9.960   8.174  0.1344 -0.0178  0.0297
    1W        W50502  19.656   4.181   8.527  0.1204  0.1013 -0.0195
    1W        W50503  10.617  28.631   0.863 -0.0493 -0.3010 -0.0882
    1W        W50504  26.240   7.778   1.502 -0.2132  0.0550 -0.0024
    1W        W50505   6.326   3.512   1.960 -0.0701  0.0461  0.2598
    1W        W50506  27.562  11.935   0.476  0.2450 -0.0043  0.2793
    1W        W50507   2.091  25.352   9.189 -0.1362 -0.0365  0.1469
    1W        W50508  20.316  27.619   2.432 -0.1489 -0.0272  0.2553
    1W        W50509  26.619  22.888   1.697 -0.0589 -0.0741 -0.3105
    1W        W50510   2.199  27.899   7.249 -0.0441 -0.0170 -0.1807
    1W        W50511  11.884  21.957   8.321 -0.0592  0.3398 -0.1068
    1W        W50512   4.365  25.423   8.566 -0.0899  0.0515 -0.0992
    1W        W50513   8.204   6.195   8.600 -0.1881  0.0271  0.1996
    1W        W50514  14.128  11.224   0.105  0.0015  0.1149 -0.0537
    1W        W50515   5.194  10.349   3.263 -0.1771  0.0254  0.1696
    1W        W50516   8.695  16.956   7.996  0.1581 -0.2205  0.2088
    1W        W50517  29.329   7.911   1.496 -0.1963  0.0813  0.1928
    1W        W50518  17.837  13.811   9.066 -0.1050  0.3440  0.2237
    1W        W50519   4.856  27.380   7.250 -0.1718 -0.0941 -0.0922
    1W        W50520   3.672   2.597   0.836 -0.1313 -0.0143 -0.2053
    1W        W50521  25.337   5.679   8.729 -0.0185 -0.2367  0.1059
    1W        W50522  28.478  21.578   7.656  0.2871 -0.2353  0.0951
    1W        W50523  26.648  15.852   0.653  0.1093 -0.0283 -0.1686
    1W        W50524   0.338  23.275   6.502  0.2174 -0.0141  0.2389
    1W        W50525   4.245   0.665   0.659 -0.0729 -0.0662 -0.3068
    1W        W50526  15.429  22.129   0.992  0.1219  0.2040 -0.2522
    1W        W50527  25.372  22.127   2.171  0.0410  0.0386 -0.1369
    1W        W50528  25.116   2.330   1.650  0.1253 -0.1219  0.0241
    1W        W50529  10.767  23.758   0.256 -0.0699 -0.2969 -0.0572
    1W        W50530  17.178  16.116   0.825 -0.1197  0.0373  0.1180
    1W        W50531  24.582  15.583   0.844  0.2362 -0.1619 -0.1876
    1W        W50532  18.756  12.414   7.526 -0.1876 -0.1163 -0.3038
    1W        W50533  17.746   1.747   9.275  0.0399  0.0543 -0.0730
    1W        W50534  17.753  25.566   9.323 -0.0455 -0.2237 -0.1459
    1W        W50535  13.981   4.733   1.386 -0.0374 -0.3179 -0.1675
    1W        W50536   6.154  13.230   7.951  0.0560 -0.2601 -0.1911
    1W        W50537   0.243   1.494   0.287 -0.1068  0.1720  0.1425
    1W        W50538  11.803  24.532   1.788  0.2198  0.1812  0.1011
    1W        W50539   2.223  12.835   6.983 -0.0865  0.1141  0.1973
    1W        W50540  12.097  12.729   8.187  0.1537  0.3494 -0.0207
    1W        W50541  18.809  23.624   3.576  0.2148 -0.0302  0.4124
    1W        W50542  10.840   2.730   0.200  0.3262  0.0540 -0.0045
    1W        W50543   0.544  12.826   6.986 -0.1362  0.3022 -0.1478
    1W        W50544  27.140  10.156   1.627  0.0458 -0.0935 -0.0758
    1W        W50545  28.381  24.162   0.099  0.1960  0.0890  0.1310
    1W        W50546  21.980  13.677   1.286  0.3039  0.1693  0.1630
    1W        W50547  19.063  28.852   7.365  0.0859  0.0408 -0.1249
    1W        W50548   4.418   7.752   1.775  0.1854  0.0999 -0.0909
    1W        W50549  27.698  10.416   7.862 -0.1625  0.3935 -0.4056
    1W        W50550   0.696   8.740   6.999 -0.1264 -0.1399  0.1905
    1W        W50551   5.849   6.430   7.898 -0.1598  0.0516  0.2164
    1W        W50552   6.097  20.240   1.193  0.2329 -0.0457 -0.1059
    1W        W50553  26.883  17.580   6.065  0.0326 -0.1590 -0.0683
    1W        W50554  24.773   1.484   9.154  0.4971 -0.1131 -0.1163
    1W        W50555  11.202  29.721   7.988  0.1326  0.1235  0.2678
    1W        W50556   8.527   9.114   8.204  0.1132  0.0402  0.1128
    1W        W50557   7.185  21.289   9.152 -0.0447  0.1216 -0.2653
    1W        W50558  18.927  11.018   6.664  0.3991 -0.0854 -0.2214
    1W        W50559   0.561  28.351   8.488 -0.0973  0.0352  0.1090
    1W        W50560  17.037  16.910   6.790 -0.1394  0.3463 -0.0256
    1W        W50561  16.881  20.910   0.105 -0.0104 -0.0064  0.0897
    1W        W50562   8.509  25.250   0.869  0.2146 -0.2087  0.0694
    1W        W50563  15.789  23.018   7.014  0.0896  0.2656 -0.0352
    1W        W50564  12.913  29.745   2.435 -0.0987 -0.1320  0.1508
    1W        W50565  22.270  25.375   6.809  0.0916  0.2466  0.1109
    1W        W50566  28.765  25.328   0.567  0.1900  0.1997 -0.2308
    1W        W50567  11.597  10.827   0.732 -0.4219 -0.0497  0.0807
    1W        W50568  28.084  12.416   6.408  0.1771 -0.2657 -0.2264
    1W        W50569   1.804  13.710   0.785 -0.3047  0.1352  0.0742
    1W        W50570   0.827   0.449   1.995 -0.0675  0.0685 -0.1737
    1W        W50571  21.723   3.239   2.761 -0.1571 -0.1299  0.0203
    1W        W50572  24.194  17.932   1.390  0.2283  0.2899 -0.0718
    1W        W50573  11.519  23.209   0.505  0.2733  0.1192  0.0273
    1W        W50574  18.823  17.623   8.473 -0.1045  0.1467 -0.0159
    1W        W50575   0.289  25.788   6.635  0.1725 -0.1096 -0.0034
    1W        W50576  13.108  20.117   7.376  0.2714  0.0606  0.0107
    1W        W50577   5.536   8.869   2.871  0.1862  0.1287 -0.0447
    1W        W50578   5.957   7.844   0.512  0.4011  0.2560 -0.2409
    1W        W50579  16.356  29.387   7.557 -0.2661 -0.0460  0.1091
    1W        W50580   8.985   3.780   1.931  0.0816 -0.2403 -0.0797
    1W        W50581  21.177  23.524   6.954  0.2674  0.1349 -0.2124
    1W        W50582  16.571  25.916   7.667 -0.1094 -0.4931 -0.2413
    1W        W50583   3.676  27.505   7.308  0.1372  0.0731  0.1107
    1W        W50584  14.844   4.629   2.971 -0.2397 -0.1960 -0.1869
    1W        W50585  15.035   2.698   0.533 -0.0048 -0.0702 -0.2867
    1W        W50586   4.144   0.325   8.479 -0.0970 -0.0650 -0.1395
    1W        W50587   9.937  23.575   7.450  0.0686 -0.2218 -0.1354
    1W        W50588  26.651  24.062   7.818  0.1271 -0.1175  0.2666
    1W        W50589   8.461  14.314   9.262 -0.0876  0.0519 -0.0770
    1W        W50590  10.615   4.221   9.343 -0.0813  0.1673 -0.1756
    1W        W50591  28.557  23.801   2.208  0.0790  0.0490 -0.2090
    1W        W50592   8.413   7.484   7.994 -0.2495 -0.1472 -0.0005
    1W        W50593   2.826  27.921   2.215  0.1102  0.2083 -0.1113
    1W        W50594  28.662  15.047   6.629 -0.2905  0.1429  0.1519
    1W        W50595  12.455   0.886   9.304  0.0080 -0.0740  0.1319
    1W        W50596   6.917  24.234   1.262 -0.3722 -0.3738  0.2288
    1W        W50597  25.459  23.101   1.357  0.1437  0.3286 -0.2075
    1W        W50598  26.345  22.822   2.377  0.3289  0.1556  0.0601
    1W        W50599  24.591  17.869   7.897 -0.0092  0.0511 -0.1044
    1W        W50600  22.600   1.544   8.295  0.1618  0.1153  0.0113
    1W        W50601  12.779  22.007   8.946 -0.3114  0.0132  0.1069
    1W        W50602  10.813  10.683   8.322 -0.2768 -0.0206 -0.1631
    1W        W50603  18.730  26.191   2.179  0.1147 -0.0154 -0.0582
    1W        W50604  13.633   3.454   8.370 -0.0604  0.0197  0.0431
    1W        W50605  15.089  28.928   0.544 -0.2783  0.3399 -0.0314
    1W        W50606  25.480  28.800   2.298  0.0068  0.1630  0.1962
    1W        W50607  16.821  27.923   1.090 -0.0002  0.0409 -0.2646
    1W        W50608  12.354  14.965   8.583  0.0346 -0.2201  0.0238
    1W        W50609  17.423  23.739   1.411  0.2621  0.0357  0.0894
    1W        W50610   0.974   6.440   2.793  0.0698 -0.2520 -0.1111
    1W        W50611  18.207  28.133   8.250  0.1414  0.1340 -0.0268
    1W        W50612  16.841  25.631   9.388 -0.1401  0.1938  0.0087
    1W        W50613  17.212  21.073   1.191 -0.2460 -0.3322  0.1506
    1W        W50614  24.116   5.524   3.144  0.1965  0.5443 -0.2544
    1W        W50615  22.750   5.452   1.149  0.3224  0.1137 -0.6348
    1W        W50616  22.201  12.490   8.608  0.1607 -0.1594  0.1833
    1W        W50617  14.332  10.320   7.891 -0.1532 -0.2511  0.1759
    1W        W50618   9.191   2.489   0.014 -0.1941  0.2348  0.1715
    1W        W50619  12.323  14.295   7.362 -0.2185 -0.1275 -0.0912
    1W        W50620   5.314   3.199   8.178  0.2796  0.0744  0.0910
    1W        W50621  11.443  15.184   7.339 -0.4640 -0.1155 -0.2344
    1W        W50622  24.369  29.036   7.873 -0.2442 -0.1348 -0.3883
    1W        W50623  26.520   6.970   1.985 -0.0934  0.1430  0.0060
    1W        W50624   1.868   1.786   0.815  0.4040 -0.1449 -0.0559
    1W        W50625  11.365  16.416   0.596  0.0537  0.1820  0.1997
    1W        W50626   4.540   0.769   7.005 -0.0935 -0.0962  0.4306
    1W        W50627   9.715  14.750   8.837 -0.1201 -0.0916 -0.1740
    1W        W50628  27.357   0.667   8.187 -0.0082 -0.2702  0.1218
    1W        W50629  28.562  29.353   0.040 -0.0465  0.0369 -0.0742
    1W        W50630  12.147  26.513   1.841 -0.0353 -0.0473 -0.2187
    1W        W50631  15.972  15.830   1.164  0.0719 -0.1025  0.2021
    1W        W50632  25.766  28.714   7.804 -0.2654  0.2006 -0.3315
    1W        W50633   6.359  18.492   6.231 -0.0026  0.0560  0.1061
    1W        W50634  24.423   7.818   2.022  0.0102 -0.1586 -0.1333
    1W        W50635   9.482  19.494   8.215 -0.1526 -0.0414 -0.1096
    1W        W50636   7.986  26.107   6.332 -0.0763 -0.1539 -0.1251
    1W        W50637   6.720  23.362   0.675 -0.0717  0.0960  0.2395
    1W        W50638  11.100  12.546   1.484 -0.0426 -0.0707 -0.0918
    1W        W50639  29.034   1.259   7.184  0.2986 -0.0595 -0.0478
    1W        W50640  26.427  16.861   0.878  0.1065  0.1446 -0.1107
    1W        W50641  28.304  20.502   0.858  0.1060 -0.0424 -0.2174
    1W        W50642   2.922  16.761   9.371  0.1834  0.2021  0.1725
    1W        W50643  21.863  21.924   0.511 -0.2590  0.2063  0.1889
    1W        W50644  10.782   3.762   1.948  0.1757 -0.1744  0.2380
    1W        W50645   9.826  28.090   7.262  0.2314 -0.0151 -0.1281
    1W        W50646   9.844   9.825   1.903 -0.1266  0.3439 -0.0647
    1W        W50647  12.810  26.571   9.079 -0.0055 -0.2521  0.0548
    1W        W50648  26.521   4.644   9.364 -0.0708 -0.2077 -0.0181
    1W        W50649  10.218  14.030   7.813 -0.2082  0.2101  0.0745
    1W        W50650  19.933   1.110   0.963  0.0549  0.3576 -0.0219
    1W        W50651  27.062  17.938   7.866 -0.1426  0.1136 -0.0231
    1W        W50652  14.453  23.611   8.783 -0.1713 -0.0389  0.1624
    1W        W50653  25.869   0.940   0.589  0.1237  0.0723 -0.1347
    1W        W50654  18.013  28.106   9.151  0.3733 -0.0077 -0.1991
    1W        W50655   0.408  25.559   2.417 -0.0907 -0.0845  0.2815
    1W        W50656  27.388   1.378   9.050 -0.2349  0.0771 -0.0746
    1W        W50657  24.209   1.525   2.196  0.3500 -0.3086  0.1517
    1W        W50658   9.946  24.914   8.295  0.0773 -0.0409 -0.1417
    1W        W50659  23.000  21.115   8.621 -0.2467 -0.0814 -0.0248
    1W        W50660  25.433  20.260   0.995 -0.3001 -0.1378 -0.1732
    1W        W50661  16.352  24.936   1.896 -0.1187  0.0898 -0.3122
    1W        W50662   3.044  18.427   8.857  0.1898 -0.0467 -0.1192
    1W        W50663  17.574   0.981   3.055 -0.0948 -0.0148 -0.1362
    1W        W50664  25.326   1.609   2.306 -0.1072  0.1052 -0.2392
    1W        W50665   7.459  15.732   2.667  0.1148 -0.1934  0.1598
    1W        W50666  21.369  25.270   8.988 -0.1502  0.2779  0.2463
    1W        W50667  22.929  14.511   7.621  0.1132  0.1932 -0.0240
    1W        W50668   2.826  15.420   2.530  0.0537 -0.0341  0.1294
    1W        W50669  23.267  19.140   2.650 -0.3502 -0.0262 -0.0665
    1W        W50670  25.799  15.226   2.165 -0.0942  0.1773 -0.1817
    1W        W50671  26.526   3.734   0.451 -0.0671 -0.2232 -0.1110
    1W        W50672  24.374  28.726   0.443 -0.0933  0.3397 -0.0572
    1W        W50673   7.233  16.772   8.744  0.1577  0.2337  0.0268
    1W        W50674   4.238  24.967   1.832 -0.3329  0.0328  0.2620
    1W        W50675   7.646  25.907   0.643 -0.0846  0.0903 -0.0682
    1W        W50676  24.390  10.977   7.347 -0.1409 -0.0716 -0.1282
    1W        W50677   8.405  22.974   9.238 -0.1962 -0.0038  0.1304
    1W        W50678  28.219  21.150   2.605  0.2253  0.0940 -0.0565
    1W        W50679   3.280  22.714   8.861 -0.0300  0.2044 -0.0535
    1W        W50680  13.116  28.893   1.021  0.0967 -0.2491 -0.0143
    1W        W50681  12.168  25.772   6.489  0.4789  0.0831  0.0973
    1W        W50682   6.262  23.702   8.641  0.1681  0.1863  0.0649
    1W        W50683  23.688   0.239   3.213  0.0239 -0.0881 -0.2697
    1W        W50684  12.715  13.108   2.597  0.2517 -0.0126  0.0899
    1W        W50685  22.341  21.686   7.002 -0.1535  0.1570 -0.0977
    1W        W50686   1.883   5.657   9.085 -0.2319  0.1715  0.0204
    1W        W50687  10.571  27.778   7.582 -0.2771  0.2100  0.0518
    1W        W50688   8.591   2.598   1.812 -0.2504  0.1884 -0.1387
    1W        W50689   1.820   3.653   2.632  0.0344 -0.0344  0.0181
    1W        W50690  19.501  16.456   8.399 -0.0963  0.1966 -0.2388
    1W        W50691  18.885  24.908   8.065 -0.1813  0.1468 -0.0126
    1W        W50692  12.266  10.710   7.729  0.4167 -0.0921 -0.1519
    1W        W50693  13.526  12.522   0.350 -0.0297  0.3228 -0.0919
    1W        W50694  16.442  27.822   8.936  0.2633 -0.0617 -0.2182
    1W        W50695   1.706  11.821   1.109  0.0563  0.0627  0.1679
    1W        W50696  17.079  27.805   8.594 -0.5002 -0.1322 -0.1531
    1W        W50697  18.404   9.087   2.158  0.0580 -0.1099  0.3329
    1W        W50698  14.452  24.074   0.865 -0.1419  0.4982  0.0668
    1W        W50699   3.203  18.247   8.311 -0.4188 -0.0448 -0.0800
    1W        W50700   5.404  22.249   9.011 -0.3744 -0.0984  0.0088
    1W        W50701  25.831  18.633   1.386 -0.0134 -0.2544 -0.1312
    1W        W50702   6.454  18.606   9.391  0.1376  0.0807  0.2261
    1W        W50703  17.412  23.577   7.772  0.1484  0.2189  0.0433
    1W        W50704  15.111  25.431   0.681  0.0325 -0.2601  0.1545
    1W        W50705  13.881  10.246   7.576  0.0671 -0.4100 -0.2515
    1W        W50706  16.122  28.571   7.689 -0.1918 -0.0628 -0.2091
    1W        W50707   9.731   8.586   0.938 -0.0481  0.0088 -0.2670
    1W        W50708  22.061   9.233   6.897 -0.1160 -0.1769  0.2757
    1W        W50709   6.125  23.887   0.958  0.1240 -0.0420 -0.0709
    1W        W50710   4.543  23.356   7.094  0.0435  0.3696  0.2841
    1W        W50711   7.889  11.208   0.395  0.1748  0.1486 -0.0825
    1W        W50712   2.859   5.464   7.806  0.1183 -0.3050  0.0522
    1W        W50713   4.894  16.976   7.515  0.0588 -0.3262 -0.1610
    1W        W50714  26.845   9.312   0.372  0.0324  0.3580 -0.4588
    1W        W50715  22.160  17.835   7.630  0.1031 -0.2332 -0.4353
    1W        W50716   1.824  12.450   9.425  0.0989  0.0056 -0.1513
    1W        W50717  28.501  14.405   2.148  0.1131  0.0194 -0.0781
    1W        W50718  29.099   6.967   8.324  0.1200 -0.1785  0.1581
    1W        W50719  24.180  25.557   3.093  0.0761  0.0333 -0.2950
    1W        W50720  27.722  20.272   1.030 -0.0310 -0.2015  0.0680
    1W        W50721  15.319  29.241   7.472  0.0702 -0.0580 -0.2975
    1W        W50722  16.349  12.702   0.697 -0.0902  0.2222  0.0563
    1W        W50723   0.654  11.775   6.019 -0.2668  0.3489 -0.1284
    1W        W50724   0.230  29.635   2.476 -0.2186 -0.0918 -0.3200
    1W        W50725  24.294  24.671   3.311  0.3282  0.1398  0.1549
    1W        W50726   9.769  24.077   1.362  0.1871  0.1583 -0.0127
    1W        W50727  25.804   4.767   6.738 -0.1209  0.0771 -0.1902
    1W        W50728  24.941   2.441   2.618  0.1371 -0.3475  0.2105
    1W        W50729   1.859  12.796   6.646 -0.1106 -0.1962 -0.2386
    1W        W50730  10.835  25.000   1.870 -0.0433 -0.1792 -0.0415
    1W        W50731   3.835  22.509   8.022 -0.1368  0.0616 -0.4331
    1W        W50732  29.238  18.597   7.729 -0.1618  0.1721  0.1348
    1W        W50733   5.465   3.605   8.538  0.0101 -0.1981  0.2905
    1W        W50734  12.071  29.487   8.026 -0.1806 -0.1791  0.0646
    1W        W50735  15.930   2.729   2.745 -0.1587  0.0035  0.3447
    1W        W50736  21.651  21.652   0.054  0.2083  0.2132  0.0229
    1W        W50737   6.633   9.121   8.447 -0.0173  0.1381 -0.1240
    1W        W50738  28.087   3.018   2.265 -0.0507  0.1858 -0.0254
    1W        W50739  11.855  28.078   0.531 -0.1571 -0.0634  0.0908
    1W        W50740  13.855  11.763   7.691 -0.1719 -0.2046 -0.1945
    1W        W50741  14.366   7.282   9.450 -0.2233 -0.0082 -0.1588
    1W        W50742  15.233  11.627   6.657  0.1744  0.0435 -0.0758
    1W        W50743  23.212  24.249   7.232  0.1138  0.0067  0.0745
    1W        W50744  12.297  11.875   8.240  0.1325 -0.3344  0.2512
    1W        W50745   8.423   5.736   2.589 -0.1779  0.2420 -0.2515
    1W        W50746   1.101   1.772   7.558 -0.2408  0.4158  0.0259
    1W        W50747  18.905  20.069   8.068  0.0361 -0.2352 -0.2726
    1W        W50748  11.640   3.358   1.192 -0.2111 -0.2516 -0.0461
    1W        W50749   5.937   5.697   8.372 -0.0658  0.0076 -0.0326
    1W        W50750   1.391  21.593   7.272  0.4818 -0.2231  0.1176
    1W        W50751  16.808  13.455   6.401 -0.2678  0.0175 -0.0814
    1W        W50752   1.858  11.934   1.676  0.2771  0.0592 -0.0597
    1W        W50753   8.400   9.292   8.665 -0.2183 -0.0718 -0.0535
    1W        W50754  12.740  15.847   7.603  0.2034  0.3048 -0.2319
    1W        W50755   0.099   2.411   9.431 -0.1066 -0.1100  0.1070
    1W        W50756   2.464  27.133   7.386  0.0502 -0.0709 -0.2678
    1W        W50757   6.774  24.104   0.190 -0.2272 -0.0419 -0.0373
    1W        W50758  12.906   7.039   3.088  0.0700  0.0913 -0.2491
    1W        W50759   3.890   8.544   8.929  0.1716  0.0499 -0.0062
    1W        W50760  14.809  20.327   9.367  0.1703 -0.4374  0.0092
    1W        W50761  21.193  13.812   6.876  0.2287 -0.0510  0.0384
    1W        W50762  18.126  28.117   1.677 -0.0040 -0.1737 -0.0151
    1W        W50763  27.747  15.818   9.086  0.0525 -0.0477 -0.0001
    1W        W50764  13.497  21.287   7.167 -0.2288 -0.0427  0.1276
    1W        W50765  16.183  27.805   3.291 -0.0977  0.0842 -0.0602
    1W        W50766  12.393   6.842   9.255  0.1670  0.3031 -0.4926
    1W        W50767  13.383  28.208   0.494 -0.2586 -0.0492  0.2980
    1W        W50768  16.019   5.680   8.988 -0.1079  0.5134  0.1436
    1W        W50769   9.916   7.499   8.061  0.3228  0.2638 -0.0415
    1W        W50770   2.129   3.273   8.576  0.0907 -0.2674  0.1416
    1W        W50771   4.363  24.041   2.137 -0.3396 -0.0372  0.3088
    1W        W50772   1.491  26.667   2.160 -0.0428  0.2655 -0.0195
    1W        W50773  22.059  28.053   8.763  0.1172 -0.0043 -0.0857
    1W        W50774  27.844  17.151   0.189  0.1904  0.0652 -0.0104
    1W        W50775  17.721  22.599   1.510  0.1240  0.0687  0.0215
    1W        W50776   5.541  22.490   9.426 -0.2180 -0.0013 -0.0055
    1W        W50777   2.253   5.659   1.322 -0.1369 -0.0736 -0.3375
    1W        W50778   7.110  14.463   0.254 -0.0893  0.1852  0.3898
    1W        W50779  10.199  16.805   7.041 -0.1972  0.1995  0.0379
    1W        W50780   2.318  13.434   0.050 -0.1110 -0.0808  0.2172
    1W        W50781   3.148  25.555   0.757  0.0934  0.0916 -0.1444
    1W        W50782  27.594  22.711   8.631  0.0614  0.1672  0.0640
    1W        W50783   5.274  14.757   0.227 -0.0191 -0.2850 -0.0373
    1W        W50784   0.530  22.458   0.311  0.0428  0.0957 -0.2137
    1W        W50785  25.346   0.585   1.333 -0.0374  0.1637 -0.0453
    1W        W50786   6.676  15.045   1.784 -0.1531 -0.1322  0.0948
    1W        W50787   7.524   1.336   8.454 -0.2673 -0.0991  0.0268
    1W        W50788  22.232  10.768   7.137 -0.0862 -0.0558  0.2066
    1W        W50789   2.730  15.607   5.574 -0.1893  0.0102  0.0478
    1W        W50790   5.551  16.735   1.696 -0.2946 -0.1703 -0.0749
    1W        W50791   7.286   6.559   6.999  0.1682 -0.4386  0.1645
    1W        W50792   5.259   1.679   0.611  0.0668 -0.0074  0.0690
    1W        W50793   1.307  16.280   6.898  0.0717 -0.0566  0.4170
    1W        W50794   5.322  28.805   2.958 -0.1825 -0.2596  0.1401
    1W        W50795   1.221  24.619   0.767  0.2022 -0.0730 -0.1210
    1W        W50796  14.864   9.326   8.169 -0.1823  0.1487  0.1946
    1W        W50797  20.848   3.199   6.425  0.1086 -0.2695  0.0415
    1W        W50798  20.814  16.830   1.158 -0.3267  0.1720 -0.2076
    1W        W50799  16.853  19.267   2.189  0.0971  0.0264  0.0455
    1W        W50800   4.739   9.760   0.913 -0.1005  0.0218 -0.1286
    1W        W50801  11.731   6.813   2.403 -0.1511 -0.3417  0.0248
    1W        W50802  14.303   3.465   7.428 -0.0933 -0.1615  0.0253
    1W        W50803   8.076   8.877   3.400 -0.2966 -0.2921  0.0913
    1W        W50804   9.278  11.147   2.846  0.1274 -0.1951 -0.3037
    1W        W50805   8.043   9.296   9.350  0.1286 -0.2525 -0.0438
    1W        W50806  12.103   6.333   8.842  0.1328 -0.1557  0.3364
    1W        W50807   0.883  22.793   0.408 -0.0966 -0.2612 -0.1749
    1W        W50808   8.118  21.336   0.157 -0.0997  0.1066  0.0668
    1W        W50809  25.899   7.635   0.145 -0.0399  0.2917 -0.0396
    1W        W50810  17.881  15.383   1.240 -0.1056 -0.3114 -0.0036
    1W        W50811   3.966   5.390   2.902  0.1112  0.1472  0.3064
    1W        W50812  26.646  28.785   0.490  0.2608  0.0184  0.0269
    1W        W50813  23.131   2.005   9.074 -0.0500 -0.0369 -0.1328
    1W        W50814  29.376  11.843   1.058  0.0403 -0.4535  0.1914
    1W        W50815  19.322  16.500   1.060  0.2774 -0.3032 -0.0835
    1W        W50816  27.428  28.732   7.804  0.1510 -0.0689 -0.0634
    1W        W50817  20.228  20.362   1.257  0.2661 -0.0311 -0.1117
    1W        W50818  22.299  27.578   8.653  0.0747 -0.0843  0.0006
    1W        W50819  17.499   4.765   6.056  0.0553  0.0155  0.2695
    1W        W50820  19.343   9.762   8.314  0.3583  0.2584 -0.0751
    1W        W50821  17.660  17.360   8.136  0.0817  0.2438  0.0754
    1W        W50822   8.088  28.578   2.202 -0.2044 -0.1224  0.0560
    1W        W50823  15.019   3.070   7.591 -0.2441 -0.0964 -0.1627
    1W        W50824  29.444  11.977   1.863 -0.1379  0.2371  0.1869
    1W        W50825  14.529  27.340   2.648  0.2737 -0.0027  0.2942
    1W        W50826  11.079   4.115   8.058  0.2179  0.1507 -0.0600
    1W        W50827  19.277  28.297   3.583 -0.1029  0.0091 -0.1689
    1W        W50828  23.943  22.054   7.364 -0.3346  0.1211  0.1285
    1W        W50829  12.467  12.173   8.681 -0.1516 -0.0304  0.1244
    1W        W50830   2.055   3.188   2.354  0.0103 -0.1070 -0.1210
    1W        W50831  15.221   2.438   6.841 -0.0324  0.1894 -0.0134
    1W        W50832  28.795  25.888   0.270  0.0460 -0.2426  0.1194
    1W        W50833  17.593  28.925   1.053  0.1611  0.0884 -0.1453
    1W        W50834  28.902  12.461   6.492  0.0226 -0.0608 -0.1950
    1W        W50835   6.176  27.696   1.676 -0.0397 -0.2462 -0.0646
    1W        W50836  16.798  19.452   1.415  0.0622 -0.1380  0.2092
    1W        W50837  25.592   4.440   2.575  0.0560  0.2082 -0.3336
    1W        W50838  13.053  23.659   9.073  0.0776 -0.2023 -0.0390
    1W        W50839  20.061  15.077   0.254  0.1319  0.1175 -0.0628
    1W        W50840  27.433  11.445   8.892  0.0069  0.1263 -0.2479
    1W        W50841  27.115  21.840   1.038  0.1430  0.3242 -0.0448
    1W        W50842   3.916  11.490   8.553  0.0650 -0.0314  0.0121
    1W        W50843  25.740  26.612   1.411  0.0061  0.0953 -0.0913
    1W        W50844  25.102  22.541   2.197 -0.0411 -0.2609 -0.2502
    1W        W50845   7.335  17.222   1.712 -0.1376  0.1339 -0.1400
    1W        W50846   6.155   1.700   1.457  0.0811 -0.2404 -0.2820
    1W        W50847  26.943   9.186   8.139  0.2423  0.0197  0.0047
    1W        W50848  14.697   8.560   7.878 -0.0579 -0.1503 -0.3986
    1W        W50849  24.114   8.755   0.381 -0.2356 -0.3090  0.0598
    1W        W50850   0.762   1.261   2.194 -0.3093  0.3158  0.0539
    1W        W50851  15.727  14.244   1.881 -0.1018  0.0403 -0.0492
    1W        W50852   6.430  24.141   1.460  0.3032 -0.0880  0.1440
    1W        W50853  11.645   2.762   2.334  0.2962 -0.0577  0.3063
    1W        W50854  12.152  12.696   0.117 -0.1197 -0.0930 -0.1835
    1W        W50855  23.701   6.238   7.913 -0.1557  0.0394  0.0210
    1W        W50856  15.465  26.970   2.038  0.3897 -0.0810 -0.1312
    1W        W50857  27.274  17.211   8.973  0.2269 -0.2865  0.3191
    1W        W50858  13.131  25.691   0.741  0.0040 -0.1111  0.2365
    1W        W50859  19.026  29.141   2.950 -0.0603 -0.1017 -0.4396
    1W        W50860   6.957  27.877   7.233  0.1234  0.0997  0.0552
    1W        W50861   4.402  15.040   9.086 -0.0328 -0.1235 -0.1452
    1W        W50862   1.934  15.306   7.578 -0.2399 -0.0412 -0.0083
    1W        W50863  18.279  26.632   8.947  0.0189 -0.1916 -0.2842
    1W        W50864  24.406  18.653   8.053  0.0641  0.2990 -0.0271
    1W        W50865  28.676  17.222   2.161  0.2443 -0.2901 -0.0115
    1W        W50866  18.147  11.993   7.830  0.2475  0.1020 -0.2306
    1W        W50867  27.191  29.221   7.992  0.3164 -0.1136 -0.0509
    1W        W50868  24.749  15.819   7.057 -0.1198  0.1834  0.0293
    1W        W50869   7.060   9.783   8.860 -0.0778  0.0808  0.4938
    1W        W50870   4.790  27.563   3.113  0.0761  0.0273  0.1830
    1W        W50871  14.265  22.603   7.518 -0.1570 -0.0316  0.2037
    1W        W50872   5.221   1.985   8.538 -0.1145 -0.5571  0.2263
    1W        W50873   0.040  18.947   7.330  0.1153  0.0131  0.3578
    1W        W50874   3.047   1.833   7.378 -0.3281  0.3808 -0.2686
    1W        W50875  24.942  16.868   8.196  0.2241 -0.0974  0.1878
    1W        W50876  28.332  19.320   1.753  0.0198 -0.0498 -0.2064
    1W        W50877  19.546   1.682   3.392  0.1082 -0.0235 -0.2744
    1W        W50878  28.308   7.016   8.708  0.1420 -0.0481 -0.4733
    1W        W50879  10.063  19.647   0.269  0.0372  0.2253 -0.2889
    1W        W50880   7.748   9.652   9.097 -0.1843  0.2315  0.0684
    1W        W50881  20.919   1.713   8.963 -0.0991 -0.0220  0.1138
    1W        W50882  27.889   9.122   7.919  0.1012 -0.0507  0.0127
    1W        W50883  28.875   8.015   7.619  0.0746  0.0188 -0.1273
    1W        W50884   1.338  14.115   9.077 -0.0549  0.1182 -0.1793
    1W        W50885   9.202   5.409   7.218 -0.0274  0.1905 -0.3644
    1W        W50886  24.297   6.747   2.824 -0.0995  0.0910  0.2112
    1W        W50887  19.513  17.262   0.169  0.3031  0.0220 -0.1790
    1W        W50888   0.176  13.689   6.412  0.1719 -0.1335 -0.3176
    1W        W50889   3.221  21.704   7.156  0.1569 -0.0739 -0.0811
    1W        W50890  24.341  12.003   6.395  0.0378 -0.0391 -0.0305
    1W        W50891  17.128  23.849   0.153  0.0109  0.0912  0.0723
    1W        W50892  24.925   8.050   7.942  0.0207  0.1700 -0.2393
    1W        W50893  14.292   3.625   0.024 -0.1305  0.0939 -0.2987
    1W        W50894   9.011   0.778   2.360 -0.1126  0.1154 -0.1156
    1W        W50895  21.225  27.356   0.589 -0.3931 -0.0573 -0.3189
    1W        W50896   8.884  28.278   2.887  0.0775 -0.0622 -0.0914
    1W        W50897  25.513  24.712   2.906  0.0668  0.0964 -0.2481
    1W        W50898   1.579   7.364   0.783 -0.0451  0.1259  0.1801
    1W        W50899  21.551  28.717   8.505 -0.2495  0.2887 -0.2752
    1W        W50900  19.941   2.816   9.290 -0.2972  0.0693 -0.0462
    1W        W50901  12.715   3.779   1.111  0.1365  0.1581 -0.0202
    1W        W50902   3.521  13.739   2.617 -0.3657 -0.0763 -0.3615
    1W        W50903  22.435  23.494   7.702 -0.1753  0.0366 -0.2583
    1W        W50904  28.118   0.001   2.077  0.1900  0.2491  0.2039
    1W        W50905  15.721   1.848   3.643 -0.1358 -0.1885 -0.0435
    1W        W50906   8.577  13.876   7.849 -0.0283 -0.0067  0.0111
    1W        W50907  26.605  10.126   8.515  0.0383 -0.1653  0.1831
    1W        W50908   7.642   6.233   7.245  0.0926 -0.3370 -0.1785
    1W        W50909  24.287   3.490   2.731 -0.1814 -0.0151 -0.0898
    1W        W50910   3.502  18.287   1.712  0.0849 -0.4427 -0.2401
    1W        W50911  26.204  23.154   2.013 -0.3203  0.3780  0.1344
    1W        W50912  10.922   1.118   8.303 -0.2909  0.0816 -0.2099
    1W        W50913   6.588   4.166   1.039  0.1486 -0.2505  0.1500
    1W        W50914   8.238   0.882   8.031 -0.0153  0.4098  0.0385
    1W        W50915   7.835  17.422   7.928  0.0478 -0.0721  0.2886
    1W        W50916  10.531  29.193   1.705 -0.0579  0.0220  0.2265
    1W        W50917  28.502   1.141   0.371  0.0735  0.1367 -0.0723
    1W        W50918  28.209  17.336   6.309  0.1043  0.1407 -0.1638
    1W        W50919  14.386  20.406   0.265  0.1193 -0.1786 -0.0843
    1W        W50920  27.268   5.252   0.532 -0.1238  0.0463 -0.0837
    1W        W50921  12.720  14.490   2.900  0.0844 -0.1875  0.0950
    1W        W50922  29.205  11.268   8.596 -0.0985 -0.1897  0.0409
    1W        W50923  21.345  10.536   1.092 -0.2246 -0.1185  0.1662
    1W        W50924  11.433  23.586   1.001  0.0159 -0.0337  0.0973
    1W        W50925   3.762  26.555   8.718  0.2001  0.1410  0.0720
    1W        W50926  28.715   3.632   6.862 -0.0730  0.0245  0.3299
    1W        W50927  19.404   7.793   9.171  0.0685  0.0211 -0.0028
    1W        W50928  27.498   5.629   6.483  0.2918  0.3919  0.1864
    1W        W50929  11.604   2.351   0.846 -0.0277 -0.0498  0.1132
    1W        W50930  15.494  27.458   1.326  0.0406 -0.1111 -0.1051
    1W        W50931  18.251  22.580   1.314 -0.0307 -0.1872  0.1104
    1W        W50932  15.710   4.520   7.117  0.1408  0.0289 -0.2075
    1W        W50933  22.175  15.592   2.332 -0.0158  0.1950  0.0489
    1W        W50934   6.808   4.251   8.558  0.0904  0.1639  0.1353
    1W        W50935  11.708   2.528   9.248  0.1059  0.3699 -0.4183
    1W        W50936  18.149  10.720   8.017 -0.1177 -0.1010  0.2285
    1W        W50937  10.395  22.846   2.030 -0.3084 -0.2247  0.1986
    1W        W50938  13.861   6.226   3.377 -0.3998 -0.4219  0.2066
    1W        W50939  21.875  26.208   0.301  0.0287  0.2567  0.3317
    1W        W50940  23.166  21.885   1.224 -0.0934  0.0577 -0.0587
    1W        W50941  24.352  14.224   6.144  0.0511  0.0492 -0.1896
    1W        W50942  22.820  19.497   1.965  0.1259 -0.1834  0.1369
    1W        W50943   2.549  14.162   7.071 -0.1418  0.1430 -0.1821
    1W        W50944   8.772  13.561   9.072  0.2688 -0.1278 -0.3040
    1W        W50945   1.952  17.268   0.436 -0.2130 -0.3125 -0.0327
    1W        W50946  21.660   0.654   8.975 -0.1584 -0.0862  0.0764
    1W        W50947   9.505   4.882   0.911  0.0900  0.0979 -0.0588
    1W        W50948   4.351   0.542   0.202 -0.1023  0.2841 -0.0197
    1W        W50949  21.676  18.884   2.084  0.1020  0.0913  0.0187
    1W        W50950  15.383   7.675   1.580  0.2290 -0.2469 -0.0292
    1W        W50951   1.270  29.798   2.472  0.0177 -0.0648  0.2018
    1W        W50952  18.531   1.770   1.700 -0.2082 -0.0914  0.1000
    1W        W50953   8.885  25.191   6.948 -0.0835 -0.0735  0.0071
    1W        W50954   1.988   2.340   3.362 -0.1455 -0.0385  0.2115
    1W        W50955   8.914  23.260   6.387 -0.2173  0.1900 -0.1286
    1W        W50956  19.813   9.289   0.282 -0.0810  0.2025 -0.0534
    1W        W50957   3.987  18.145   8.660 -0.1341 -0.0004  0.2893
    1W        W50958  16.582  10.855   1.514  0.2504  0.1196  0.1893
    1W        W50959  10.967  26.439   8.724 -0.0430  0.0234  0.1488
    1W        W50960  17.179  22.461   1.683 -0.0249  0.2599  0.4454
    1W        W50961   1.918  10.598   1.607 -0.0979  0.0272  0.4226
    1W        W50962   1.817   4.946   7.698  0.0183  0.1120  0.1876
    1W        W50963   2.699   6.237   0.507  0.2440  0.0178 -0.2737
    1W        W50964   0.492   9.368   9.282  0.2923  0.1531  0.0467
    1W        W50965   6.912   5.679   7.405  0.0608  0.1306 -0.2264
    1W        W50966   0.371  21.040   1.880  0.1447 -0.2194  0.1505
    1W        W50967  26.561   9.358   5.828  0.1963  0.0699  0.0773
    1W        W50968  27.337   9.366   0.162  0.1889 -0.1149 -0.2050
    1W        W50969  10.914  27.950   1.471 -0.0090  0.2741  0.5369
    1W        W50970  25.159  26.900   7.238  0.1162  0.1611 -0.1028
    1W        W50971  21.731  28.844   0.092 -0.1572  0.0878 -0.0585
    1W        W50972   3.787  23.370   8.445 -0.0974  0.0545  0.3741
    1W        W50973   9.493   8.577   2.396 -0.1736 -0.0446  0.0616
    1W        W50974  10.843   7.149   0.960  0.3098  0.1355  0.1202
    1W        W50975  17.387  29.679   0.001 -0.0579  0.2297 -0.2442
    1W        W50976   3.459  11.750   7.176  0.0075 -0.1333 -0.2355
    1W        W50977  17.648   8.982   1.606 -0.0692  0.1473 -0.0926
    1W        W50978   7.737   2.629   2.126  0.0600  0.0628  0.0676
    1W        W50979  16.816   1.234   7.540 -0.3330  0.1775 -0.0454
    1W        W50980  27.620  14.719   8.664 -0.1158 -0.1759 -0.0427
    1W        W50981  27.903   1.832   3.279  0.1594  0.1609 -0.1466
    1W        W50982  25.918  19.827   7.174 -0.0866 -0.0970 -0.1091
    1W        W50983  16.541   2.796   6.070 -0.1433 -0.1305 -0.4583
    1W        W50984  13.506  12.645   1.772  0.2449 -0.0109  0.1201
    1W        W50985   4.567  20.177   0.955 -0.0164 -0.1969 -0.3078
    1W        W50986  27.126  12.027   7.124  0.3401 -0.0422  0.0780
    1W        W50987   5.079   1.631   0.102 -0.0428  0.0498 -0.0540
    1W        W50988   4.566  18.528   1.681  0.0916  0.0627  0.2422
    1W        W50989   3.080  22.187   0.089 -0.0901  0.1061  0.0190
    1W        W50990  23.372  17.081   0.502 -0.0342  0.1678  0.1291
    1W        W50991  18.910  13.999   9.109 -0.2620 -0.0625 -0.3411
    1W        W50992  19.017   1.207   6.535  0.1283  0.2753 -0.0233
    1W        W50993   6.482  21.149   0.457  0.3872 -0.0687  0.0561
    1W        W50994  18.127  15.916   2.095 -0.0578  0.1791 -0.1283
    1W        W50995  17.468  13.826   6.214  0.2333 -0.0249  0.0967
    1W        W50996  16.268   6.125   1.884 -0.1354 -0.0457  0.2832
    1W        W50997  19.965  26.335   2.455  0.1894  0.2410 -0.0791
    1W        W50998  16.650  10.908   0.185 -0.1144 -0.0640  0.1061
    1W        W50999   2.519   1.938   1.729 -0.0173  0.2883  0.3967
    1W        W51000   0.488  16.525   0.270  0.1011  0.0811 -0.2163
    1W        W51001  13.207   8.125   7.769 -0.0277 -0.1201 -0.0590
    1W        W51002   2.893  19.090   6.941 -0.2134  0.1805  0.1571
    1W        W51003  25.433  23.600   1.359  0.0329 -0.1256 -0.0882
    1W        W51004   0.882  28.982   8.877 -0.3769 -0.0514  0.0114
    1W        W51005  21.980  19.597   1.544  0.0583 -0.3336 -0.2014
    1W        W51006   5.038  21.117   6.690  0.1212 -0.3322 -0.0066
    1W        W51007  27.635  13.377   1.774  0.0320  0.0317  0.3744
    1W        W51008   1.252  20.153   7.952  0.3323 -0.2362 -0.0849
    1W        W51009   9.202  12.823   2.501  0.0418  0.1751  0.1108
    1W        W51010  12.573  15.176   2.672  0.0271 -0.3955 -0.0137
    1W        W51011  13.080  11.769   7.679 -0.0452 -0.0627 -0.0670
    1W        W51012  19.570   5.933   1.924  0.0784 -0.0522  0.0480
    1W        W51013   9.094   0.339   9.180  0.4838 -0.1751  0.2873
    1W        W51014  27.996  16.318   9.323 -0.0344  0.0553  0.2020
    1W        W51015  20.035  23.371   9.149 -0.2274  0.0538 -0.2238
    1W        W51016   4.800  22.432   1.383 -0.1218  0.0458 -0.1039
    1W        W51017  18.163  19.826   7.899  0.3336  0.0079  0.0878
    1W        W51018   3.591  22.910   8.381  0.0968  0.2128  0.1826
    1W        W51019  27.624  29.207   7.718 -0.0794  0.1636 -0.1167
    1W        W51020  17.433  24.195   9.426 -0.2335 -0.0917 -0.1608
    1W        W51021  20.541  26.300   1.080  0.1805  0.0776  0.1699
    1W        W51022  29.773  25.804   2.203  0.0716 -0.1863 -0.1318
    1W        W51023   3.517  16.260   0.042 -0.0570 -0.1460 -0.1017
    1W        W51024   8.046   1.352   8.248 -0.1911  0.0459 -0.2775
    1W        W51025  27.940  19.275   8.761 -0.2880  0.0293 -0.1038
    1W        W51026  18.684  17.120   7.660 -0.0887 -0.1569  0.0539
    1W        W51027  20.487   4.681   2.962 -0.3921  0.1531 -0.0798
    1W        W51028   7.924   1.417   6.583 -0.3048 -0.3295 -0.0778
    1W        W51029   7.511   8.285   3.457  0.1214 -0.1942  0.2085
    1W        W51030  12.572   1.483   2.797  0.0035 -0.1797  0.3582
    1W        W51031  21.710  19.550   2.336 -0.3697 -0.0212 -0.0428
    1W        W51032  15.193  17.525   8.983 -0.3392 -0.0557  0.4512
    1W        W51033   8.245   0.218   8.693 -0.0247  0.1440 -0.4553
    1W        W51034  14.552  19.279   8.035  0.2738 -0.0787  0.0361
    1W        W51035  23.003  17.789   2.298 -0.2547  0.1072 -0.0760
    1W        W51036  22.222  25.791   0.404 -0.0730  0.0118 -0.2221
    1W        W51037  26.340  12.951   1.928 -0.0001  0.5814 -0.3412
    1W        W51038   7.624  26.525   8.842  0.0875  0.3562 -0.0763
    1W        W51039   8.297  14.440   1.043 -0.0403  0.0522  0.2354
    1W        W51040   5.509  12.082   7.118 -0.3691  0.1276  0.0061
    1W        W51041  22.875  19.579   6.514  0.0107 -0.2199  0.1083
    1W        W51042   2.928  23.496   7.910 -0.1102 -0.1192 -0.0846
    1W        W51043   9.841   4.014   1.984 -0.2901  0.1885 -0.3755
    1W        W51044   1.293  27.452   1.777 -0.2198 -0.0896  0.1816
    1W        W51045   0.850   9.851   1.034 -0.3529 -0.1279 -0.0684
    1W        W51046  25.800  12.866   1.778  0.0758 -0.3355 -0.0557
    1W        W51047  27.288   8.460   6.601  0.3222 -0.0089 -0.0196
    1W        W51048  11.775  23.539   1.840 -0.2583  0.0462 -0.0621
    1W        W51049  15.984  11.916   1.401  0.1288 -0.0050  0.0103
    1W        W51050   1.149  27.512   6.913 -0.3273 -0.3442  0.3209
    1W        W51051  13.723   4.783   8.295 -0.0847  0.2286 -0.0274
    1W        W51052   0.595  24.026   6.986  0.1651  0.0009  0.0112
    1W        W51053  25.830   1.533   8.425 -0.2037  0.2802  0.1473
    1W        W51054  24.788  25.373   9.237  0.0122 -0.0368 -0.0155
    1W        W51055  28.325  12.256   6.958 -0.2043  0.1356  0.3062
    1W        W51056   9.691   7.687   8.998  0.0847  0.1561 -0.1851
    1W        W51057   7.420  19.625   6.401  0.0260  0.1558 -0.0555
    1W        W51058  28.684  12.909   0.185 -0.4684 -0.2126 -0.0744
    1W        W51059   5.833   8.293   7.921  0.3540 -0.2506  0.0609
    1W        W51060   4.582  11.669   0.683  0.1098  0.1755 -0.2426
    1W        W51061  18.758   5.627   8.469  0.0708 -0.0597  0.1068
    1W        W51062  13.401  18.855   8.765  0.0595  0.1261  0.0011
    1W        W51063  13.902  28.123   0.234  0.0856  0.1123 -0.0952
    1W        W51064  19.165   8.876   1.379  0.0152  0.0474 -0.1981
    1W        W51065   4.838   5.779   1.034 -0.0349 -0.1512 -0.2440
    1W        W51066  22.190   2.654   0.365  0.0709  0.2748  0.2522
    1W        W51067  12.629   8.392   0.790 -0.0014 -0.1874  0.0629
    1W        W51068  10.067   7.388   2.883  0.2740 -0.0822 -0.0300
    1W        W51069  12.992  26.412   2.063 -0.0717 -0.0170  0.0556
    1W        W51070  25.079  28.370   8.751 -0.0256  0.2833  0.0368
    1W        W51071  17.658  11.410   0.738  0.0807  0.1505  0.0580
    1W        W51072  16.126   6.646   1.847 -0.0270  0.1311  0.1294
    1W        W51073   6.410  14.698   7.688 -0.0320  0.1648 -0.0702
    1W        W51074  24.875   9.316   0.545 -0.0240  0.0730  0.1650
    1W        W51075  23.495  18.449   9.016 -0.2405  0.0892  0.1925
    1W        W51076  10.194  17.509   0.325 -0.0893  0.2400  0.2519
    1W        W51077  21.271   2.477   7.419 -0.0089  0.0194  0.0440
    1W        W51078   4.394  25.538   1.423  0.3445  0.2620  0.2775
    1W        W51079  15.253  23.418   0.075  0.1870 -0.1180 -0.1128
    1W        W51080   5.939   9.183   9.336  0.0108  0.1090  0.2787
    1W        W51081   2.836  11.122   2.149  0.0289  0.0125  0.1334
    1W        W51082  24.721  18.403   8.944 -0.0151 -0.1542  0.1985
    1W        W51083  11.101  13.433   0.528  0.0236 -0.1526 -0.4801
    1W        W51084  22.462  10.013   0.904  0.0175  0.1761 -0.1220
    1W        W51085  26.669   0.777   7.787 -0.2042 -0.1457  0.1422
    1W        W51086  23.993  10.399   1.374 -0.1925  0.2444 -0.2200
    1W        W51087  11.164  26.600   7.686 -0.0248  0.0372  0.0108
    1W        W51088   9.768  22.801   8.966  0.0884 -0.1709 -0.0558
    1W        W51089  15.577  14.222   6.982  0.0853  0.0110  0.0881
    1W        W51090  19.851  29.420   1.127 -0.1505  0.1757  0.1197
    1W        W51091  11.516  25.750   6.942 -0.2332  0.0187  0.0158
    1W        W51092   1.588   6.423   2.890 -0.2460  0.0069  0.0588
    1W        W51093   7.343  17.775   1.726  0.1047  0.2563  0.1510
    1W        W51094  13.213  21.486   7.637 -0.0601 -0.3030 -0.2062
    1W        W51095  20.794   9.681   7.433  0.1063 -0.0666 -0.0467
    1W        W51096  21.529   6.174   6.754  0.1506 -0.1514  0.1187
    1W        W51097   9.289   7.329   8.838  0.0234  0.0047 -0.0224
    1W        W51098  27.531  27.872   1.653 -0.0497  0.2817  0.0187
    1W        W51099  21.877  19.113   8.221 -0.2468  0.3204 -0.3259
    1W        W51100   1.669  14.784   8.218 -0.4083  0.0523  0.0773
    1W        W51101   5.882   5.032   9.422 -0.0331 -0.0016  0.0066
    1W        W51102  16.568  26.616   0.963 -0.0155 -0.0679 -0.0108
    1W        W51103  20.503  25.313   2.057 -0.1317 -0.1579 -0.0705
    1W        W51104  23.969  11.833   1.888 -0.0904  0.1501  0.2023
    1W        W51105   0.467  17.452   7.525 -0.2428 -0.0608  0.0371
    1W        W51106  12.397   3.352   3.150 -0.0078 -0.2677 -0.0557
    1W        W51107   0.595  20.546   8.673  0.1304  0.3782 -0.1644
    1W        W51108  24.695   2.854   2.502 -0.0298 -0.0261  0.0497
    1W        W51109   5.840   3.380   2.946  0.0455 -0.2725 -0.1285
    1W        W51110  26.335  10.982   2.464  0.1485  0.0174  0.1197
    1W        W51111  16.739   0.897   0.463 -0.0201 -0.0653  0.2681
    1W        W51112  18.295   6.951   9.034 -0.0835  0.0451 -0.0995
    1W        W51113   5.074  13.775   9.310  0.0733 -0.0431  0.0936
    1W        W51114  15.779  28.598   8.922  0.0739 -0.0708  0.0149
    1W        W51115  24.338  25.171   9.034  0.1713 -0.1392 -0.2853
    1W        W51116   2.835  19.795   7.926  0.0142 -0.0088 -0.3863
    1W        W51117  21.907  22.891   1.359  0.0936  0.2206 -0.4249
    1W        W51118  21.949   8.106   8.398  0.1090 -0.2025 -0.3099
    1W        W51119  23.799   7.001   0.973  0.0195 -0.0591  0.2298
    1W        W51120   1.106  15.925   8.877 -0.1479  0.2355 -0.1847
    1W        W51121   5.497  20.179   9.411  0.2494  0.1562  0.4081
    1W        W51122  25.011  20.852   0.088 -0.0317 -0.0651 -0.1176
    1W        W51123  24.737  11.604   6.632  0.3585 -0.1791  0.0550
    1W        W51124   9.839  21.256   7.214  0.3962  0.0537  0.4161
    1W        W51125   6.928   1.103   7.824  0.3197 -0.0799  0.2458
    1W        W51126  14.260   3.085   8.766 -0.2775 -0.1385  0.3685
    1W        W51127  13.809  29.710   8.537  0.1140 -0.2383  0.1152
    1W        W51128   9.300  14.338   7.287 -0.1507  0.3548 -0.1268
    1W        W51129  19.256   1.960   2.674  0.0233 -0.2075 -0.2391
    1W        W51130  28.266   3.371   1.483  0.1999 -0.1953 -0.0227
    1W        W51131  22.821  14.057   0.756  0.2684  0.0276  0.1205
    1W        W51132  25.581  19.154   7.278 -0.1675  0.0261  0.0728
    1W        W51133  24.638  13.153   7.689 -0.0109 -0.0894  0.2413
    1W        W51134  17.253   1.380   6.393 -0.1753 -0.1720 -0.1261
    1W        W51135  19.287   8.394   8.650 -0.3278  0.3187 -0.0989
    1W        W51136  14.411   2.126   7.679  0.1376 -0.1168 -0.0449
    1W        W51137  25.308  21.182   7.582  0.1864 -0.0327 -0.0447
    1W        W51138   3.345  16.174   8.183 -0.1442 -0.1667  0.0911
    1W        W51139  28.019  22.135   7.967  0.1120  0.1342 -0.1625
    1W        W51140  18.033  14.455   7.504 -0.3012  0.2226  0.1255
    1W        W51141   8.191  27.050   8.913 -0.1079 -0.0286 -0.3292
    1W        W51142   5.097   6.125   3.687  0.0599  0.0706  0.2192
    1W        W51143  25.487  15.243   6.859  0.0420  0.0540  0.0642
    1W        W51144   5.287  22.272   7.156  0.0145  0.2130 -0.0185
    1W        W51145  28.775  13.130   6.561  0.0324  0.2773  0.4938
    1W        W51146   4.714  24.343   6.320  0.3731  0.2919 -0.0373
    1W        W51147  15.233  23.709   0.473  0.1218  0.0733  0.3804
    1W        W51148   9.617  26.667   9.013 -0.1381  0.1315  0.0382
    1W        W51149  18.670  26.127   0.637 -0.1172 -0.4709 -0.0634
    1W        W51150   1.294  22.086   1.018 -0.2132  0.1551  0.2389
    1W        W51151  16.812   7.614   8.978 -0.0498  0.0733  0.1131
    1W        W51152  23.044  21.969   8.550  0.1215  0.0605 -0.3697
    1W        W51153  28.998  28.315   6.529  0.1181 -0.2986 -0.1365
    1W        W51154  22.308  28.218   1.942  0.1561 -0.0036  0.1143
    1W        W51155  13.682   6.596   7.670  0.1318  0.3992  0.2443
    1W        W51156  29.181   9.247   7.822 -0.1392  0.0251  0.0104
    1W        W51157   3.070  14.880   6.309  0.2635 -0.0401 -0.1939
    1W        W51158  18.207   9.655   1.436 -0.0857 -0.4115 -0.1247
    1W        W51159  10.282  27.178   9.007 -0.1954 -0.1263  0.0022
    1W        W51160   3.183  20.087   9.205  0.0618 -0.0290 -0.1378
    1W        W51161  15.086  20.931   7.524  0.0791 -0.3028  0.2014
    1W        W51162   0.551   4.412   0.594 -0.0874 -0.1337 -0.1309
    1W        W51163  17.776  29.325   2.735  0.1544 -0.1815  0.1970
    1W        W51164   9.643   5.796   1.170  0.0307  0.2329 -0.1065
    1W        W51165   3.223  11.865   6.359  0.0794 -0.2764  0.2182
    1W        W51166  21.726  27.351   7.529  0.0730  0.0679 -0.2515
    1W        W51167   4.277  19.332   8.024  0.2175 -0.3044 -0.1957
    1W        W51168  18.111  23.689   8.937  0.1905  0.0578  0.3187
    1W        W51169  11.837  21.658   6.600  0.1920  0.0937 -0.1319
    1W        W51170   1.236   7.766   5.678 -0.1442  0.1518  0.0250
    1W        W51171   0.814  21.968   7.978 -0.0126  0.0703  0.1859
    1W        W51172  15.518  11.253   0.428  0.1371  0.0455 -0.0445
    1W        W51173   3.397   2.559   1.523  0.0178 -0.0478 -0.3958
    1W        W51174  12.578   6.877   1.762 -0.2753 -0.0258  0.2051
    1W        W51175  28.532  20.908   6.550 -0.2872 -0.0963 -0.2148
    1W        W51176  10.884  29.681   2.837  0.2920  0.1579  0.2237
    1W        W51177   0.587  12.330   0.465  0.0906  0.0668 -0.0904
    1W        W51178  19.516  16.692   2.324  0.0744 -0.0118 -0.0479
    1W        W51179   7.288   9.411   2.889  0.1192 -0.0258 -0.1275
    1W        W51180   0.441  15.244   1.408  0.1381  0.0392 -0.3739
    1W        W51181  24.298  21.954   8.417  0.3058 -0.0262 -0.0636
    1W        W51182  28.117  16.649   8.532 -0.1745  0.2331 -0.0894
    1W        W51183  24.700  16.918   1.159  0.0365  0.1152 -0.0890
    1W        W51184  21.435   1.101   0.930 -0.2546 -0.0087  0.2028
    1W        W51185  10.972  18.877   6.393 -0.1974  0.1641 -0.1292
    1W        W51186  13.674  20.962   6.790 -0.2983  0.0092  0.0835
    1W        W51187  23.446  21.506   1.055 -0.1531  0.0159 -0.1318
    1W        W51188  27.458   5.253   6.089  0.2019 -0.1393 -0.0364
    1W        W51189  28.070   0.991   8.164 -0.0281 -0.3052  0.2854
    1W        W51190  13.652  14.491   0.299  0.0407 -0.0416 -0.1417
    1W        W51191  17.446  10.132   8.554  0.0915  0.0449 -0.0191
    1W        W51192  19.608   2.902   1.562 -0.3099 -0.1357 -0.0680
    1W        W51193   2.636  15.534   0.655 -0.2629 -0.1151 -0.1410
    1W        W51194   3.541   1.397   8.741  0.2136 -0.0332  0.0613
    1W        W51195   3.461  15.133   1.082 -0.1431 -0.1422  0.1174
    1W        W51196   5.028   1.828   2.817 -0.2267 -0.0348 -0.0523
    1W        W51197  25.863  22.536   0.389 -0.1465 -0.0604  0.1108
    1W        W51198  11.645  16.161   9.162  0.0072 -0.1009  0.1518
    1W        W51199  28.340  26.377   9.398 -0.0447  0.4187 -0.2694
    1W        W51200  11.896   2.756   0.734 -0.0158 -0.0046  0.0424
    1W        W51201   4.522  24.614   6.005  0.3124 -0.2504  0.4084
    1W        W51202  10.329  15.981   8.756  0.1481  0.1528 -0.0498
    1W        W51203  24.774  25.974   1.919 -0.0398 -0.0680  0.1787
    1W        W51204  22.030   9.776   0.978 -0.0730  0.0324 -0.1537
    1W        W51205   9.378   2.503   7.977  0.0799  0.0993 -0.1851
    1W        W51206   5.402   1.285   7.631  0.2536  0.1107  0.0838
    1W        W51207  20.576   1.778   1.815  0.0089  0.0268  0.0829
    1W        W51208   3.014  23.763   7.058  0.2645  0.1491 -0.1116
    1W        W51209  22.829  25.592   1.135  0.0565  0.0862 -0.0180
    1W        W51210  28.892  25.106   8.983  0.0962 -0.0441 -0.1964
    1W        W51211  25.989  26.124   7.223  0.1551 -0.1868 -0.2898
    1W        W51212  17.509  24.333   2.653 -0.1281 -0.0607  0.2775
    1W        W51213  23.947  24.384   1.039  0.0409  0.4414 -0.0649
    1W        W51214  23.507   2.627   2.365  0.3368  0.1604  0.1204
    1W        W51215   2.618  26.849   8.272  0.0202  0.2937 -0.1875
    1W        W51216  21.397   3.343   7.421 -0.1443  0.1676  0.1748
    1W        W51217  15.458  25.003   1.670 -0.0222  0.2613 -0.1043
    1W        W51218   3.945  27.600   1.502 -0.2029 -0.5244 -0.1597
    1W        W51219  14.541   4.230   0.964 -0.0308  0.3114  0.0011
    1W        W51220   7.983  19.326   9.058  0.0452 -0.1178  0.0682
    1W        W51221  24.511  12.695   1.257 -0.1294  0.2457 -0.4408
    1W        W51222  23.929  16.883   6.115  0.1156  0.0910  0.2914
    1W        W51223  18.844  26.531   0.358 -0.0022 -0.2112  0.2402
    1W        W51224   3.448   3.402   7.249  0.2175  0.1729 -0.2157
    1W        W51225  10.956  24.603   1.453  0.1356  0.0346 -0.2540
    1W        W51226  27.920  22.236   2.022  0.0012 -0.0554 -0.0661
    1W        W51227  22.545  22.479   2.550  0.4172 -0.0171 -0.2346
    1W        W51228  24.988  25.651   0.737  0.3195 -0.4064  0.0377
    1W        W51229   8.322  17.721   0.549  0.0115  0.0006  0.1227
    1W        W51230  28.794   3.350   9.187 -0.3909  0.2138  0.2740
    1W        W51231  24.932   8.755   6.603  0.1025  0.3085 -0.3447
    1W        W51232  23.910   0.951   9.012 -0.2288 -0.0330  0.0416
    1W        W51233   1.275  27.847   0.072 -0.0731 -0.0150 -0.2844
    1W        W51234  15.387  27.982   8.086 -0.1244 -0.2106 -0.3597
    1W        W51235  14.394  24.444   6.493 -0.0943 -0.3250  0.0409
    1W        W51236  24.058  26.134   0.850  0.0085  0.1309 -0.0274
    1W        W51237  26.886  11.588   7.213  0.1423  0.1276 -0.0371
    1W        W51238   0.410   2.813   9.257 -0.0071  0.0170 -0.2437
    1W        W51239   7.619  12.206   0.937  0.1305  0.1073  0.0573
    1W        W51240  24.085   5.896   1.608 -0.0250  0.1031  0.0514
    1W        W51241  24.410  15.265   1.648  0.0357  0.0759 -0.0417
    1W        W51242  15.548   2.374   2.891  0.0877  0.1996  0.2993
    1W        W51243  20.100   4.981   2.150 -0.0938  0.1702 -0.0056
    1W        W51244  29.029   9.975   8.225 -0.1609  0.2793 -0.0830
    1W        W51245   2.734   7.841   2.686  0.0956 -0.1118  0.3004
    1W        W51246  10.281  13.158   8.958 -0.1107 -0.1453 -0.2004
    1W        W51247  26.804  26.967   8.768 -0.1967 -0.1265 -0.1323
    1W        W51248  27.562  18.217   9.382 -0.1324  0.1139  0.1603
    1W        W51249  29.278  11.710   9.431  0.1002 -0.0589  0.1586
    1W        W51250  16.103  25.498   3.245 -0.2770 -0.2674 -0.0223
    1W        W51251  26.145   5.423   9.351 -0.0412 -0.2273  0.2896
    1W        W51252  24.843  10.785   7.135  0.0585 -0.0243 -0.4485
    1W        W51253   0.621   9.121   1.492  0.1811 -0.1142 -0.0253
    1W        W51254  20.020   0.382   8.781  0.2051 -0.2622  0.1887
    1W        W51255  28.438  28.486   7.940 -0.0104 -0.0944  0.2584
    1W        W51256   1.003   7.208   7.575  0.1019 -0.1506 -0.1387
    1W        W51257  13.238  27.428   2.094  0.4287  0.1949  0.1426
    1W        W51258  11.082  23.520   8.641 -0.0600 -0.3263  0.0512
    1W        W51259  20.887   5.438   0.415 -0.1800  0.1108 -0.1127
    1W        W51260   5.132  13.404   0.226 -0.2174 -0.1130  0.0187
    1W        W51261   4.088  24.281   9.318  0.0612  0.1201  0.1451
    1W        W51262  22.692  13.786   5.819 -0.0957 -0.3616 -0.1433
    1W        W51263  13.787  24.769   7.041 -0.0879  0.4980  0.2129
    1W        W51264   6.910  20.031   7.748 -0.2242  0.0876 -0.0726
    1W        W51265  10.134  27.313   0.616  0.2717  0.2294  0.0919
    1W        W51266   2.969  10.941   3.017  0.2837 -0.0520 -0.2433
    1W        W51267   5.413  15.334   8.840 -0.1292 -0.0534 -0.2016
    1W        W51268   4.707  16.146   0.750 -0.1161 -0.0482  0.2345
    1W        W51269  19.877   5.419   2.154 -0.2963 -0.1747  0.2190
    1W        W51270   1.274  12.171   8.020  0.0020 -0.1652  0.2726
    1W        W51271  15.831  20.049   2.089 -0.0368 -0.2023 -0.3193
    1W        W51272   3.093  28.900   0.255 -0.4152  0.1874 -0.3063
    1W        W51273  17.739  11.758   1.137  0.1489 -0.3361 -0.2150
    1W        W51274  25.931  26.316   2.215 -0.1869 -0.0931  0.2070
    1W        W51275  24.708  13.028   7.105  0.1844 -0.0431  0.0104
    1W        W51276  18.390  20.377   7.081 -0.0163  0.0208  0.1694
    1W        W51277  14.968  26.782   9.156 -0.0163  0.3148 -0.0687
    1W        W51278   2.611   0.158   8.230  0.1918 -0.0395 -0.1609
    1W        W51279  20.397  16.773   1.772 -0.0890 -0.1215  0.0281
    1W        W51280  16.168   8.039   7.067 -0.1616 -0.1402 -0.2754
    1W        W51281  13.899  15.508   0.186  0.0124  0.1091 -0.0140
    1W        W51282  19.840  29.238   7.387  0.0128 -0.2707  0.1178
    1W        W51283   0.941  29.559   7.240 -0.1474 -0.1109 -0.0434
    1W        W51284  19.365   1.847   2.170 -0.0651 -0.1413  0.0100
    1W        W51285  11.642  14.451   7.838 -0.1764  0.1648  0.1725
    1W        W51286  22.090   6.936   2.121 -0.1003  0.1640  0.0474
    1W        W51287  19.258  29.736   7.950  0.0221 -0.1144  0.0467
    1W        W51288  25.466  28.102   0.039 -0.0574  0.1101  0.2242
    1W        W51289  22.471   2.690   7.451 -0.3344 -0.2028 -0.1802
    1W        W51290   3.507  17.995   8.632 -0.1347  0.0168 -0.1099
    1W        W51291  19.046  20.534   7.971  0.2014  0.1579 -0.1105
    1W        W51292   8.768  10.531   0.970 -0.3045  0.1278  0.3208
    1W        W51293  10.311   4.606   9.446 -0.3632  0.0319 -0.2653
    1W        W51294   9.835  23.512   9.132 -0.0885  0.0485  0.2431
    1W        W51295  15.518  28.609   0.517  0.3448  0.0568  0.1630
    1W        W51296   1.902  16.795   0.063 -0.0372  0.4028 -0.0957
    1W        W51297  11.046  25.160   6.496 -0.1122  0.1365 -0.0516
    1W        W51298  10.459  12.653   2.517  0.0027  0.0013  0.3054
    1W        W51299  24.565   9.965   8.499  0.1028 -0.2217  0.3451
    1W        W51300   7.040  19.650   6.780 -0.1041 -0.0959  0.0322
    1W        W51301  16.167  29.485   2.396  0.1353  0.3756  0.0387
    1W        W51302  15.089  27.446   2.821 -0.0325 -0.2678 -0.0104
    1W        W51303  20.868   9.720   1.138  0.1211 -0.1806  0.1973
    1W        W51304   2.550  19.701   1.819 -0.2417 -0.1935  0.1603
    1W        W51305  23.635   4.947   8.555  0.2776 -0.0163  0.0781
    1W        W51306   9.749  12.983   8.894 -0.1615 -0.1745  0.0829
    1W        W51307  10.352   2.236   3.143  0.0788  0.0113 -0.0425
    1W        W51308   3.221  24.200   6.164  0.0977  0.2091 -0.1133
    1W        W51309  26.842  24.611   2.525  0.1304 -0.0900  0.1792
    1W        W51310  12.869   2.748   2.874 -0.1698 -0.2778 -0.1048
    1W        W51311   7.607  24.488   8.394  0.3224  0.2491 -0.0539
    1W        W51312  20.537  27.749   1.019  0.0100 -0.0150 -0.0309
    1W        W51313  27.729  12.563   9.288 -0.1502 -0.1336  0.0039
    1W        W51314   7.778   5.125   9.112 -0.0204 -0.1556 -0.2124
    1W        W51315  23.818  20.721   3.079  0.0847  0.1885 -0.0744
    1W        W51316  27.798  10.997   0.030  0.0598  0.1944  0.0903
    1W        W51317   5.709  14.648   7.280 -0.2002 -0.1838 -0.2766
    1W        W51318  26.021   6.344   1.587 -0.0108 -0.2599 -0.2698
    1W        W51319  22.919  13.971   1.232  0.2838  0.1570  0.0936
    1W        W51320   3.535  26.686   1.082  0.1756 -0.1329  0.0826
    1W        W51321   3.722  15.431   8.744 -0.3842  0.4580  0.2027
    1W        W51322  21.614   8.506   7.149 -0.1092 -0.0145  0.1056
    1W        W51323  29.091  14.730   7.525  0.1354 -0.0218 -0.1002
    1W        W51324  20.306  26.617   2.191  0.1951  0.2145  0.0307
    1W        W51325  25.149  22.124   9.102  0.1315  0.2886 -0.0831
    1W        W51326   3.552   1.010   0.444  0.1802 -0.1787  0.2410
    1W        W51327  25.952  20.812   1.742 -0.1481  0.1710 -0.3035
    1W        W51328  19.775  17.696   0.381  0.2962  0.1768 -0.1086
    1W        W51329  19.897  28.328   7.466 -0.1187  0.0356  0.3779
    1W        W51330   9.870   8.097   1.116  0.0487  0.0580 -0.1220
    1W        W51331  22.506   2.937   2.287 -0.0801 -0.0367 -0.0249
    1W        W51332  11.186  20.110   7.802  0.0092 -0.0567 -0.2045
    1W        W51333  10.758  10.606   1.482  0.1469  0.0582 -0.2760
    1W        W51334   2.355   1.867   0.536 -0.1069  0.0762  0.0435
    1W        W51335  17.714  10.470   0.004 -0.3627  0.0890 -0.2869
    1W        W51336   0.459   8.662   6.582  0.1676  0.2857  0.2097
    1W        W51337   0.440   9.124   0.910 -0.0336  0.0548  0.1051
    1W        W51338  25.758   2.533   8.131 -0.1366  0.1621 -0.1610
    1W        W51339   7.798  16.955   6.935 -0.0366  0.2022  0.2061
    1W        W51340  15.056  27.755   0.269  0.2133 -0.1156  0.1104
    1W        W51341  24.451  17.729   9.447  0.2202 -0.3555  0.0691
    1W        W51342  22.487  23.462   7.199  0.1678 -0.1220 -0.1272
    1W        W51343  27.695   4.177   6.659 -0.1352 -0.0938  0.0040
    1W        W51344  29.606  15.170   8.295  0.0240  0.0383  0.1401
    1W        W51345   7.283   2.017   9.169 -0.0194  0.1470  0.1015
    1W        W51346  28.599  15.556   2.765  0.0986 -0.2562 -0.0961
    1W        W51347   3.465   4.619   7.231  0.1981 -0.2287 -0.0382
    1W        W51348  26.833  16.317   6.570  0.0801 -0.2536 -0.0365
    1W        W51349   6.225  11.225   3.130 -0.0566  0.1472 -0.0583
    1W        W51350  19.912   7.861   7.100 -0.3984 -0.0105  0.1369
    1W        W51351  10.419  22.263   8.778 -0.2562 -0.0181 -0.0858
    1W        W51352  22.623  23.037   7.849  0.2169  0.0518 -0.0585
    1W        W51353  19.170   0.373   7.692 -0.0803 -0.0247 -0.0678
    1W        W51354  11.687  15.502   8.657 -0.0971 -0.3473 -0.3161
    1W        W51355  25.634   2.232   0.032 -0.2093 -0.0838 -0.0752
    1W        W51356  26.439   2.728   8.840 -0.4197 -0.0141  0.2370
    1W        W51357  21.112  17.246   9.238  0.0525  0.2666 -0.2162
    1W        W51358  10.665  29.234   0.854  0.0414 -0.1871  0.0933
    1W        W51359  18.335  17.651   8.612 -0.1258  0.3181  0.1167
    1W        W51360  29.064  18.307   7.360  0.0275 -0.0534 -0.0715
    1W        W51361   1.620   2.491   8.315 -0.3795 -0.0491  0.1012
    1W        W51362   7.142  24.780   9.280  0.1664  0.1548 -0.1782
    1W        W51363  16.823  18.340   0.576 -0.0068  0.2447 -0.3394
    1W        W51364  14.055   0.533   1.018 -0.4413 -0.3260  0.0140
    1W        W51365   1.450   2.434   7.348  0.4006 -0.0286 -0.3737
    1W        W51366   6.435  19.477   6.131 -0.5979 -0.0242 -0.2001
    1W        W51367   3.838  17.517   6.897  0.0097  0.0048 -0.0812
    1W        W51368  11.066  20.175   1.058 -0.2640  0.0259  0.0177
    1W        W51369  25.780  12.687   0.686  0.0557  0.0510 -0.0288
    1W        W51370  19.228  15.993   0.861  0.0001  0.2735 -0.2784
    1W        W51371  15.763  26.955   0.165 -0.0071 -0.2467  0.0636
    1W        W51372   8.455  21.664   8.136 -0.0555  0.2064 -0.1333
    1W        W51373  14.736   8.484   0.403 -0.4393  0.2800 -0.1774
    1W        W51374   1.040  10.992   9.174 -0.0993  0.0300 -0.1773
    1W        W51375  11.375  22.385   8.939 -0.2196  0.1271  0.2370
    1W        W51376  26.755  14.336   6.773 -0.0515  0.0050  0.0998
    1W        W51377   4.578   7.757   2.587 -0.0857  0.0544  0.0035
    1W        W51378  24.105  29.461   2.544 -0.3318  0.0797 -0.1124
    1W        W51379  15.970  17.495   0.760  0.1806 -0.1661 -0.2041
    1W        W51380  24.472  28.183   7.907 -0.0006  0.2026  0.2141
    1W        W51381  20.430   2.768   2.249 -0.2339  0.0635 -0.0865
    1W        W51382  26.858  27.539   8.513 -0.1102 -0.1070  0.2320
    1W        W51383  15.512  12.036   1.547  0.2050 -0.3166  0.0914
    1W        W51384  12.031  27.979   3.868 -0.0218  0.1115 -0.1819
    1W        W51385  15.732   4.390   0.166 -0.0950  0.0308  0.1361
    1W        W51386   7.911  15.220   8.739  0.1806 -0.1394 -0.0002
    1W        W51387  24.616  25.236   7.666 -0.1589  0.0072 -0.3318
    1W        W51388   5.990   4.491   6.881  0.0188 -0.3560 -0.1729
    1W        W51389  26.788  24.628   7.294  0.0127 -0.1672  0.0027
    1W        W51390   3.822  20.141   1.489 -0.0891 -0.0877 -0.0584
    1W        W51391  18.661   5.212   6.553  0.0002  0.0645  0.2497
    1W        W51392  20.989  21.008   7.630  0.2997 -0.3535  0.2390
    1W        W51393   9.251   0.439   7.845  0.0426  0.1415  0.1431
    1W        W51394  25.347  20.734   7.323  0.1263 -0.1303 -0.0081
    1W        W51395  18.361   2.822   2.038 -0.2850 -0.1746 -0.2870
    1W        W51396  17.452  28.260   3.420  0.2610  0.4160 -0.2222
    1W        W51397   3.648  26.985   0.680 -0.1747 -0.3873 -0.0527
    1W        W51398  16.486  26.016   1.558  0.1517 -0.2501 -0.2749
    1W        W51399   1.081  19.576   6.467 -0.1449  0.0690 -0.1817
    1W        W51400  21.516  11.296   7.758  0.3316 -0.0528  0.1572
    1W        W51401  16.884  15.471   1.348  0.1352 -0.1363  0.0331
    1W        W51402   5.511  22.432   7.744 -0.0378 -0.2110  0.1946
    1W        W51403  21.599   3.435   0.196 -0.1840  0.2968  0.0781
    1W        W51404   5.166   3.776   7.259  0.0954  0.2970  0.0167
    1W        W51405  10.521   0.875   2.097 -0.0661 -0.1367 -0.1568
    1W        W51406   6.808  10.575   2.433  0.1719  0.1160 -0.1555
    1W        W51407  15.684  18.853   1.963 -0.3727  0.2187  0.1305
    1W        W51408  18.795  28.354   0.594  0.2007 -0.1446  0.2116
    1W        W51409  22.814  15.362   9.261 -0.1853  0.0932  0.3088
    1W        W51410  12.944  10.160   7.225  0.2920  0.0871 -0.2651
    1W        W51411  17.838  14.430   8.346 -0.1160 -0.2354 -0.1144
    1W        W51412  24.332   8.288   3.380 -0.1533 -0.2564  0.1014
    1W        W51413   2.968  28.304   7.759 -0.0955  0.2234  0.2598
    1W        W51414  16.272  27.329   1.658  0.1096 -0.0551 -0.1236
    1W        W51415  25.011  28.190   7.804  0.4860 -0.2930 -0.1218
    1W        W51416  26.977   5.564   0.840  0.0450  0.1836  0.1780
    1W        W51417  11.268   3.946   1.795 -0.1735 -0.2827 -0.2175
    1W        W51418   0.651  25.542   7.004 -0.3265 -0.0557  0.2830
    1W        W51419  22.869  13.069   8.176 -0.0127  0.0648 -0.2225
    1W        W51420   4.917  27.856   7.050  0.1301 -0.0773 -0.1378
    1W        W51421   7.526   2.314   0.167 -0.3244  0.1432  0.3389
    1W        W51422   1.516  12.392   7.540  0.2275  0.1166 -0.1650
    1W        W51423  23.524  26.765   8.836  0.1893  0.0389  0.3254
    1W        W51424  29.247  25.693   0.460 -0.5247  0.1470 -0.0247
    1W        W51425   2.501   4.297   8.511 -0.0543  0.2425  0.0675
    1W        W51426  16.102  11.643   2.538 -0.3379  0.1803 -0.0095
    1W        W51427  13.987  25.187   2.530 -0.0094 -0.0133 -0.1941
    1W        W51428   7.934  21.676   7.236 -0.1015 -0.0165 -0.0379
    1W        W51429   0.850  22.600   1.645  0.0783  0.2043  0.0072
    1W        W51430  21.770  14.123   7.726  0.2951  0.1789 -0.2979
    1W        W51431   8.673  22.927   1.152  0.1017 -0.0889  0.2749
    1W        W51432  17.148   1.666   1.003 -0.1354 -0.4047  0.4459
    1W        W51433  27.492   0.492   9.049  0.0904  0.0212 -0.0820
    1W        W51434   2.221  23.332   6.775 -0.2772  0.3095 -0.1244
    1W        W51435  10.783  14.696   7.771  0.0418  0.0618 -0.0046
    1W        W51436   3.851  15.004   0.369  0.1600 -0.2105 -0.1342
    1W        W51437  14.566   6.576   9.178 -0.2958  0.0985 -0.0497
    1W        W51438   6.431  29.682   2.533  0.0507  0.1089 -0.0340
    1W        W51439  12.061  28.034   7.290 -0.0542 -0.0850  0.0480
    1W        W51440   2.259  25.749   6.063 -0.1835  0.1404  0.2264
    1W        W51441  26.316  21.072   6.325 -0.1654  0.0402  0.2293
    1W        W51442   0.312   6.874   8.992 -0.0610 -0.0090  0.1899
    1W        W51443  18.602  10.901   7.903  0.1879  0.1833  0.0228
    1W        W51444  22.751  19.768   8.933  0.2661  0.1075 -0.1668
    1W        W51445  22.521  11.546   9.434  0.0682  0.0872  0.1427
    1W        W51446   9.235  14.111   1.578 -0.0931 -0.1558  0.2147
    1W        W51447  11.623  17.040   8.301 -0.1049 -0.0304  0.0664
    1W        W51448  19.479   5.279   0.032  0.0628  0.0801  0.0190
    1W        W51449  24.536  18.011   1.057 -0.1269  0.0752  0.1236
    1W        W51450  20.746   1.551   2.270 -0.0996 -0.3383  0.0703
    1W        W51451  29.561  14.554   7.602 -0.0083  0.3004  0.3226
    1W        W51452  19.596   8.293   9.032 -0.1802  0.3436  0.0350
    1W        W51453   1.162  21.069   6.058 -0.2662 -0.1066  0.1981
    1W        W51454  17.176  22.683   8.874 -0.0929 -0.1993 -0.1311
    1W        W51455  12.068   6.019   1.916 -0.1208 -0.2501 -0.1166
    1W        W51456   4.854  13.120   2.062 -0.2335 -0.0872  0.1079
    1W        W51457   1.504   5.278   9.082 -0.0429 -0.1993 -0.0882
    1W        W51458  18.174   4.772   1.995  0.1055  0.1634  0.0349
    1W        W51459   6.392  16.818   9.143 -0.0658  0.1745 -0.1335
    1W        W51460  12.422   5.632   0.541  0.1114  0.0056  0.1135
    1W        W51461  21.619  26.409   2.379 -0.0224  0.0232  0.0862
    1W        W51462  27.251  19.699   2.268 -0.0174  0.3935  0.0067
    1W        W51463   6.792   0.678   8.183 -0.1261  0.0530  0.0391
    1W        W51464  12.821  29.155   2.636  0.0491  0.2572 -0.1591
    1W        W51465   5.388  25.169   7.582  0.1067  0.0937 -0.0849
    1W        W51466   7.852   7.577   2.632 -0.0218  0.0263  0.0255
    1W        W51467   2.660  23.356   0.497  0.2211  0.0769  0.2164
    1W        W51468   0.626  11.882   0.608  0.0505  0.0106 -0.1546
    1W        W51469  22.891  23.806   8.942 -0.1146 -0.2986  0.0157
    1W        W51470  13.615   6.736   3.302  0.2112 -0.0227  0.1651
    1W        W51471  27.822  17.219   1.428  0.0606 -0.0773 -0.1587
    1W        W51472  13.252  22.855   6.487  0.0636  0.1668 -0.2978
    1W        W51473  24.263  22.421   7.392  0.2665 -0.2581 -0.4110
    1W        W51474  19.115  27.907   7.843  0.2912  0.5165 -0.1601
    1W        W51475  25.537   1.034   1.024 -0.0790  0.1387  0.1078
    1W        W51476   5.249   1.368   7.155 -0.4389 -0.0819 -0.2149
    1W        W51477  17.740   0.103   8.203 -0.0347 -0.0556  0.0626
    1W        W51478  29.657  20.800   0.755 -0.0041  0.0043 -0.0477
    1W        W51479  18.360   9.586   9.348 -0.1815 -0.0300 -0.0120
    1W        W51480  14.088  23.176   0.089  0.0043  0.1002  0.0508
    1W        W51481  29.645  18.517   7.391 -0.1180 -0.0355 -0.3775
    1W        W51482  10.362  14.211   8.381  0.0671  0.0706  0.1840
    1W        W51483   8.831  24.589   6.727 -0.1780  0.0382  0.5368
    1W        W51484   3.410   3.019   0.535 -0.0760  0.2451 -0.0872
    1W        W51485  28.155   5.034   6.925  0.2738 -0.0643 -0.0023
    1W        W51486  11.677   4.513   3.780 -0.0372  0.0399  0.2152
    1W        W51487   7.819  26.085   6.821  0.1385 -0.0875  0.0053
    1W        W51488  25.114  24.541   1.447  0.1703  0.2457  0.1125
    1W        W51489  16.232  12.876   1.502 -0.1041 -0.0148 -0.1178
    1W        W51490  15.063  25.383   7.758 -0.2126 -0.2327 -0.0555
    1W        W51491   4.753   1.628   8.347  0.2784  0.1184 -0.1179
    1W        W51492  20.886  14.716   0.812  0.4784  0.2314  0.0792
    1W        W51493  11.317   2.148   3.426  0.1078 -0.0800  0.1963
    1W        W51494   6.357   6.431   8.070 -0.3798 -0.1569 -0.1354
    1W        W51495  26.802   2.007   7.270  0.1521 -0.1618 -0.0442
    1W        W51496   7.842  29.636   3.420  0.0457  0.0453 -0.2132
    1W        W51497   3.966   2.581   7.267 -0.1713 -0.1751  0.0814
    1W        W51498  19.960  14.598   0.032 -0.0293 -0.0798  0.1752
    1W        W51499   6.131  13.754   8.433  0.1928  0.3328 -0.1714
    1W        W51500  13.837   8.452   0.906  0.0972 -0.2984 -0.0781
    1W        W51501  15.184  18.732   1.784 -0.1336 -0.1760 -0.1040
    1W        W51502   6.891  16.977   2.626  0.3114 -0.2386 -0.0328
    1W        W51503   5.164  17.622   1.464  0.0602  0.0879  0.1374
    1W        W51504   8.486   6.914   3.638  0.3494  0.2826 -0.0538
    1W        W51505  12.638  19.001   0.086  0.0756  0.1546 -0.0015
    1W        W51506  10.020   9.281   2.691  0.3480 -0.3824 -0.0113
    1W        W51507  10.400  23.738   0.693 -0.2056  0.0435  0.3611
    1W        W51508  28.108  20.512   8.419  0.1118 -0.0641 -0.3029
    1W        W51509  21.406  26.107   2.730 -0.1414  0.0153 -0.0374
    1W        W51510   3.060  10.819   0.237 -0.2545 -0.0419 -0.3705
    1W        W51511  13.361   6.205   1.642 -0.1612  0.0988 -0.0142
    1W        W51512  11.269   9.411   9.371  0.2101  0.0484 -0.2411
    1W        W51513  28.307  13.845   0.116  0.0825  0.2732  0.0834
    1W        W51514  12.841   3.117   7.330  0.0066 -0.0410 -0.1280
    1W        W51515   4.256   7.155   8.101  0.2792 -0.1672  0.2170
    1W        W51516  14.940   6.093   3.559  0.0543  0.2151 -0.0826
    1W        W51517  25.803  23.171   0.019 -0.1595  0.1562 -0.2841
    1W        W51518   4.749  17.003   6.447 -0.0278  0.2013  0.0620
    1W        W51519   4.929   3.166   8.858  0.0097  0.1363  0.1266
    1W        W51520   4.109   8.750   6.738 -0.1588 -0.0157 -0.2992
    1W        W51521  19.845  14.421   6.754 -0.0415 -0.1956 -0.0760
    1W        W51522  28.505  29.247   1.580  0.0050  0.0795  0.2722
    1W        W51523  26.488  16.686   7.521 -0.1784  0.1133 -0.0076
    1W        W51524   1.340  10.674   0.259  0.3587 -0.0991  0.0459
    1W        W51525  16.089  20.953   1.777 -0.0009  0.0493 -0.1673
    1W        W51526   5.563  21.673   0.545 -0.1938 -0.1450  0.0672
    1W        W51527  20.567  11.479   8.957  0.0086 -0.1460  0.3582
    1W        W51528   0.996   2.831   7.613  0.1130 -0.1450 -0.0501
    1W        W51529  23.152   6.237   8.262  0.0316  0.1193  0.0282
    1W        W51530  22.048  21.811   2.925  0.3410  0.0553 -0.2069
    1W        W51531  12.256   1.430   6.734 -0.1223 -0.1840  0.2165
    1W        W51532  13.544  15.572   6.760 -0.0258 -0.6275 -0.0784
    1W        W51533  10.872   6.914   8.026  0.0712 -0.0275  0.1563
    1W        W51534  25.368   2.748   7.918  0.2114  0.0154 -0.1408
    1W        W51535  19.271  22.883   0.020 -0.0263  0.1241  0.0338
    1W        W51536   5.184  28.501   7.561  0.1228 -0.1930 -0.0362
    1W        W51537  12.335  15.793   8.225  0.1316  0.1039 -0.3091
    1W        W51538  23.618  21.145   0.793 -0.1295  0.1613  0.0250
    1W        W51539  21.067  17.057   8.791  0.0587 -0.0872  0.1802
    1W        W51540  14.008  20.748   7.099  0.0028  0.3400  0.0446
    1W        W51541  19.475   2.029   7.389 -0.2620  0.1303 -0.5336
    1W        W51542  20.354   6.484   2.650 -0.1413 -0.2000 -0.1391
    1W        W51543   0.877   3.089   3.226 -0.2963  0.0909  0.0618
    1W        W51544  29.654   1.519   3.692  0.2232  0.3950  0.0291
    1W        W51545  29.740  27.781   2.006  0.0243 -0.0305 -0.1221
    1W        W51546  17.961  19.875   3.148 -0.0582 -0.0289 -0.0662
    1W        W51547  22.608   6.606   7.148  0.0622  0.2444 -0.0273
    1W        W51548  22.893  20.172   7.355  0.1297 -0.1526 -0.1226
    1W        W51549  21.439   6.240   0.364  0.0875  0.0324 -0.1198
    1W        W51550  24.895  27.544   7.567 -0.1953  0.0940 -0.2023
    1W        W51551  23.217  28.419   2.920  0.0714 -0.1314  0.2912
    1W        W51552   5.287   2.409   0.690 -0.1341  0.0462 -0.2270
    1W        W51553  14.220  27.569   6.447  0.1870  0.1753 -0.0267
    1W        W51554  24.049  12.345   6.013  0.0418  0.1790 -0.0487
    1W        W51555   0.859   2.297   0.733  0.3848 -0.2646 -0.2564
    1W        W51556  24.216  20.299   2.150 -0.1239  0.2897 -0.0118
    1W        W51557  24.493  20.119   1.102  0.1639  0.1469  0.2221
    1W        W51558  21.935  15.268   1.319  0.2426  0.2053 -0.2089
    1W        W51559  21.826  13.172   7.374  0.2674  0.0393 -0.1627
    1W        W51560   8.508   5.226   0.063 -0.2624  0.1094 -0.0765
    1W        W51561  12.695  24.608   2.117  0.1503  0.2094 -0.2362
    1W        W51562  21.667  25.993   1.987 -0.1184  0.1681  0.0562
    1W        W51563  26.220  16.784   8.113  0.2822  0.2836  0.0482
    1W        W51564   0.117  11.864   8.753  0.2449 -0.3038 -0.1061
    1W        W51565   8.545  15.272   0.714  0.0308 -0.0052  0.0217
    1W        W51566  22.519  25.934   1.392 -0.1253  0.4642  0.0034
    1W        W51567   6.733  11.309   1.272 -0.0717 -0.0217 -0.2949
    1W        W51568  12.297  12.418   2.145  0.0405  0.2146 -0.0172
    1W        W51569  17.287  25.173   3.701 -0.0261  0.1391 -0.2129
    1W        W51570  28.101   0.203   8.592  0.0535 -0.0751  0.0007
    1W        W51571  12.399   6.121   0.431  0.1212 -0.0367 -0.0203
    1W        W51572  28.835  19.489   6.633  0.3600  0.1699  0.1043
    1W        W51573   6.768  16.121   9.311 -0.1188  0.1185  0.2023
    1W        W51574   9.681   5.804   7.950  0.0640  0.0561 -0.2714
    1W        W51575   9.250  26.699   8.111 -0.2588 -0.2132  0.0060
    1W        W51576   4.143   0.896   9.401  0.0298 -0.0178  0.0364
    1W        W51577   0.684   8.667   7.515  0.0417  0.2248  0.2191
    1W        W51578  28.296  24.370   7.274  0.3418 -0.0596  0.2480
    1W        W51579  24.538  25.844   0.488  0.0285 -0.1807  0.0042
    1W        W51580  22.167  22.977   7.015 -0.2414 -0.1675  0.0455
    1W        W51581  13.922  23.980   9.104  0.2145  0.3366 -0.1490
    1W        W51582  23.573  10.701   0.703 -0.0555 -0.1361 -0.0735
    1W        W51583  12.551   2.421   8.671 -0.0230 -0.1287  0.0547
    1W        W51584   4.802  26.377   1.369 -0.1375  0.1622  0.3071
    1W        W51585   3.661  22.324   0.601 -0.1082  0.0949 -0.3416
    1W        W51586  27.873   6.742   7.198 -0.2293 -0.1984  0.2127
    1W        W51587  15.245  25.814   2.198 -0.1325 -0.5740  0.1594
    1W        W51588  17.891   3.919   9.067 -0.1821  0.1107 -0.1448
    1W        W51589  24.179  23.643   0.463  0.0175 -0.3622 -0.2699
    1W        W51590  14.121  16.962   1.733 -0.2150  0.2463  0.1243
    1W        W51591  17.588   9.686   1.658  0.3222  0.0139 -0.1388
    1W        W51592  29.334   0.429   7.602  0.3327 -0.4368 -0.0010
    1W        W51593  13.127   2.315   9.290 -0.1680 -0.1594 -0.1481
    1W        W51594  16.129   3.316   8.111 -0.1082  0.0233  0.1401
    1W        W51595  11.389   2.286   8.247 -0.0803 -0.0125 -0.0424
    1W        W51596  20.872  13.543   8.906  0.0925 -0.3670 -0.3298
    1W        W51597   4.577   1.167   7.331 -0.4264 -0.1870 -0.0274
    1W        W51598  27.451   4.281   9.010  0.1291 -0.2695 -0.1539
    1W        W51599   6.757  22.918   5.674  0.1371 -0.1748 -0.1245
    1W        W51600   9.498   6.197   8.392  0.4039 -0.0140  0.0996
    1W        W51601  12.148  25.707   7.548  0.1508 -0.3586 -0.1401
    1W        W51602  26.202  11.108   0.195 -0.1099  0.0049  0.1153
    1W        W51603  14.337  24.117   8.778  0.1694  0.0380 -0.2267
    1W        W51604   1.688  18.327   5.929 -0.4723 -0.2582 -0.2657
    1W        W51605  29.403  21.927   0.220 -0.2629  0.2405  0.1239
    1W        W51606   1.507  11.511   6.805  0.0214 -0.0620  0.3792
    1W        W51607  12.805  14.381   0.817  0.1601 -0.0087 -0.0347
    1W        W51608   7.167  11.427   7.861 -0.0699 -0.1566  0.2483
    1W        W51609  28.800  23.640   1.842 -0.1385  0.0017 -0.0098
    1W        W51610  19.928  10.633   8.856 -0.1259 -0.1044 -0.0532
    1W        W51611  29.139   7.281   0.487  0.0514 -0.2246 -0.1256
    1W        W51612  11.741  25.028   5.926  0.1066 -0.1290 -0.0080
    1W        W51613   1.856  15.315   6.529 -0.0267 -0.3104 -0.0435
    1W        W51614  26.590   8.591   1.384 -0.0894  0.0390 -0.2712
    1W        W51615   8.627  25.924   0.220 -0.1736  0.4236  0.1181
    1W        W51616  18.405   4.514   1.611 -0.1129 -0.3009  0.3178
    1W        W51617  22.830  14.052   7.406 -0.3806  0.0326  0.0574
    1W        W51618   6.378  12.893   1.545  0.0828 -0.1384 -0.0958
    1W        W51619   2.811  18.087   7.259 -0.1128  0.0756  0.1046
    1W        W51620   3.885  24.801   9.372  0.3356 -0.1972 -0.2966
    1W        W51621  11.536  26.609   2.462 -0.0544  0.0645 -0.0437
    1W        W51622   9.025  16.212   1.587  0.1531  0.3113 -0.1678
    1W        W51623  28.912  17.113   1.174 -0.1641 -0.0476  0.2623
    1W        W51624  28.263  23.605   1.290 -0.0470 -0.0667 -0.0207
    1W        W51625  26.250  18.414   1.613 -0.1039  0.1029 -0.4529
    1W        W51626   1.969   4.382   0.468  0.2476  0.0523 -0.4030
    1W        W51627  28.514  24.805   8.375  0.0860 -0.0202  0.0498
    1W        W51628   4.412   5.946   7.898 -0.0931 -0.0028  0.1537
    1W        W51629  16.266  17.480   1.499 -0.3656  0.0344 -0.2443
    1W        W51630  27.411  25.894   2.428 -0.0777  0.1212  0.0364
    1W        W51631   4.006  21.813   6.640  0.0716  0.1544 -0.3287
    1W        W51632   9.967  15.703   8.562 -0.1416 -0.0860  0.1100
    1W        W51633   6.125  12.056   0.277 -0.2125 -0.0862 -0.2232
    1W        W51634   2.791  21.311   1.984  0.1068 -0.2210 -0.1032
    1W        W51635   9.264  14.575   7.786  0.0102  0.2749  0.1041
    1W        W51636  14.117  12.937   7.344 -0.1866 -0.0727  0.2625
    1W        W51637   5.225  23.758   7.622 -0.1635 -0.0566 -0.2050
    1W        W51638  14.862  16.772   9.358  0.2224 -0.0997  0.0938
    1W        W51639   0.196   1.073   2.148  0.1173 -0.0513  0.0323
    1W        W51640   1.386  20.621   1.905 -0.3898 -0.1393  0.1996
    1W        W51641   8.730  20.429   8.064 -0.0716  0.2182 -0.0024
    1W        W51642  10.822   2.341   7.934 -0.0923  0.0731  0.4072
    1W        W51643  19.099  28.330   2.594 -0.1412  0.5752  0.0225
    1W        W51644  14.712   7.181   2.623  0.0996  0.1439 -0.1070
    1W        W51645   3.097  24.534   6.492 -0.0398  0.0117  0.0475
    1W        W51646   9.056   8.368   2.230  0.0961  0.0927 -0.2229
    1W        W51647   7.443  20.200   0.916  0.2873 -0.2303  0.1031
    1W        W51648   7.877  20.537   7.244 -0.0125  0.0785 -0.1526
    1W        W51649  28.327  11.214   9.347  0.0412  0.1829  0.1476
    1W        W51650  13.530   2.943   1.861  0.1445 -0.0536 -0.1589
    1W        W51651   3.936   8.931   1.419  0.0002 -0.4695 -0.0381
    1W        W51652   5.948   4.297   8.791  0.4319  0.0295 -0.0649
    1W        W51653  13.227  26.496   9.297 -0.1656 -0.1659 -0.0828
    1W        W51654   7.939  24.670   0.303  0.1738  0.0695  0.0189
    1W        W51655  17.339  25.221   2.060 -0.0285 -0.3584  0.2055
    1W        W51656  26.361  13.233   9.294  0.2038  0.2254 -0.1422
    1W        W51657  15.643  19.995   2.617 -0.0579 -0.0217  0.0798
    1W        W51658  23.608  11.293   1.214 -0.0602 -0.2575  0.0716
    1W        W51659  15.970  20.404   1.285  0.1233  0.2831 -0.0576
    1W        W51660  26.452  13.926   1.082 -0.0159  0.0770 -0.2499
    1W        W51661  14.107  22.874   1.831 -0.0089  0.4471 -0.1953
    1W        W51662  25.190  10.017   1.429 -0.1697 -0.1358  0.0176
    1W        W51663  12.785  23.018   6.344 -0.0078 -0.1306 -0.0840
    1W        W51664   8.317  16.888   8.405  0.2277  0.1735  0.4720
    1W        W51665   8.654   5.827   0.878  0.0383 -0.2558  0.0010
    1W        W51666   9.624   1.914   7.238 -0.4960 -0.1317 -0.0689
    1W        W51667  13.512   4.475   1.290  0.0024  0.1101  0.0110
    1W        W51668   3.830  13.024   7.724  0.0270  0.0325 -0.1987
    1W        W51669  10.030  16.212   7.361  0.2721 -0.0998 -0.0022
    1W        W51670   3.646  14.042   7.010 -0.0424  0.0650 -0.0893
    1W        W51671  10.939   3.061   0.624 -0.0490  0.0363 -0.0248
    1W        W51672   4.438  26.258   7.971  0.0503 -0.0446  0.1215
    1W        W51673   9.407   9.176   8.762  0.3005  0.1900  0.1950
    1W        W51674   2.861  18.230   6.300 -0.1837 -0.0894  0.3464
    1W        W51675   1.798  18.500   0.838  0.0783  0.0693  0.0057
    1W        W51676  23.519   9.512   2.227  0.1056  0.0303 -0.1095
    1W        W51677   8.222  19.548   7.863 -0.0654 -0.1555 -0.2572
    1W        W51678   1.180  14.738   6.550 -0.0547 -0.1885 -0.0329
    1W        W51679   9.644   2.235   0.070  0.3390 -0.0262  0.0312
    1W        W51680  13.601  17.113   8.804  0.0556 -0.1437 -0.2412
    1W        W51681  22.524  18.117   7.880  0.0977  0.1313  0.4717
    1W        W51682   3.777  16.857   7.845  0.3965  0.1615  0.0248
    1W        W51683  14.836   4.820   6.741  0.0468 -0.1447 -0.1450
    1W        W51684  14.537  28.789   9.276  0.2134 -0.0979 -0.1312
    1W        W51685  24.236   7.041   6.990  0.1434  0.0089  0.0018
    1W        W51686  29.246  20.876   6.482 -0.1354 -0.0196  0.2505
    1W        W51687  26.869   1.935   0.661 -0.1447  0.3712 -0.0565
    1W        W51688  15.186  28.440   0.876  0.0085 -0.1776  0.1852
    1W        W51689  16.592  19.957   9.215  0.0503  0.0419 -0.0233
    1W        W51690  24.216   7.911   7.389  0.0086  0.1847 -0.3103
    1W        W51691   7.734   6.041   1.260  0.3408  0.4025  0.1364
    1W        W51692  29.439  22.978   7.732  0.2087  0.5451 -0.0799
    1W        W51693  24.196  23.086   6.557 -0.2039 -0.5463 -0.1830
    1W        W51694  27.933  23.292   0.381 -0.0867  0.2202 -0.1406
    1W        W51695  18.850  16.499   6.653  0.0428 -0.1157  0.0077
    1W        W51696  28.131  14.833   7.031 -0.0418 -0.0268  0.1337
    1W        W51697  17.059   5.574   2.095  0.0642  0.0119  0.2956
    1W        W51698  13.777  25.737   7.816 -0.1717 -0.1891  0.0739
    1W        W51699   3.661  20.980   6.165  0.1766 -0.1558  0.2777
    1W        W51700  27.458  28.436   6.269  0.0328  0.0625  0.0071
    1W        W51701  23.933   9.630   2.492  0.1530  0.0519 -0.3442
    1W        W51702  27.999  12.142   2.058  0.1937  0.0001 -0.0377
    1W        W51703   8.399   5.730   8.738 -0.0220 -0.1808 -0.2161
    1W        W51704  24.861  13.128   8.941 -0.1498  0.0622  0.3311
    1W        W51705  12.195   8.977   9.335  0.2673 -0.0750 -0.0038
    1W        W51706   4.361   9.923   8.955  0.0582 -0.0069 -0.1333
    1W        W51707  17.629   8.555   6.417 -0.2253  0.1497  0.0652
    1W        W51708  21.014  18.207   0.810 -0.1522 -0.1675 -0.0524
    1W        W51709   3.319   8.249   8.469  0.3991 -0.1320 -0.2863
    1W        W51710   0.445   9.568   1.201 -0.1553  0.0426  0.2613
    1W        W51711  17.526  20.398   7.774  0.3753  0.1792  0.4668
    1W        W51712  23.197  22.396   1.021 -0.0173  0.0288  0.0383
    1W        W51713   2.505  15.211   5.309  0.0175 -0.4298 -0.1645
    1W        W51714  25.055  13.944   5.633  0.0157 -0.1582  0.0173
    1W        W51715  11.188   5.532   2.276  0.0187 -0.1920 -0.4420
    1W        W51716  16.125  29.629   8.666 -0.5655 -0.3043 -0.0100
    1W        W51717  22.791   3.066   1.842 -0.0728 -0.0015 -0.3965
    1W        W51718   5.019   9.147   2.159 -0.1738  0.0878 -0.1785
    1W        W51719  15.760   4.599   7.570  0.1595 -0.0879 -0.0212
    1W        W51720  17.981  21.487   8.941 -0.1689 -0.1582  0.0092
    1W        W51721  23.150  10.879   2.486  0.0072 -0.0096 -0.0651
    1W        W51722   3.899  10.836   8.602 -0.0570  0.0689 -0.0490
    1W        W51723  19.094   0.307   2.562 -0.0940  0.4478 -0.1470
    1W        W51724  17.942   5.876   2.118 -0.0794 -0.0705 -0.1607
    1W        W51725  14.410  22.598   8.899  0.0782  0.0285  0.1175
    1W        W51726  15.754  10.425   1.667 -0.0287  0.0469  0.1281
    1W        W51727   2.423   2.256   7.693 -0.1087  0.0368  0.1263
    1W        W51728  27.327  10.411   0.133  0.0474 -0.1109  0.2104
    1W        W51729  28.295   6.403   3.391 -0.0901  0.1661  0.3302
    1W        W51730   5.544  17.413   0.580  0.0236 -0.0924  0.2978
    1W        W51731  18.489  11.969   8.490 -0.0807  0.5167 -0.1161
    1W        W51732   9.697  21.847   9.265  0.2600  0.1126  0.1533
    1W        W51733  28.184  23.214   1.861  0.1208 -0.0382 -0.1090
    1W        W51734  27.555   1.119   8.158 -0.3358 -0.1756 -0.0350
    1W        W51735  27.508  10.384   7.269  0.0792 -0.0479  0.0032
    1W        W51736  24.105  13.750   7.397 -0.2379  0.3286  0.0470
    1W        W51737   4.793  26.631   1.840 -0.1002  0.2374 -0.0794
    1W        W51738   2.935   3.445   2.165 -0.1182 -0.1272  0.2041
    1W        W51739   3.381   8.728   1.195  0.1896 -0.0778 -0.1193
    1W        W51740  15.950  12.824   6.780  0.2211 -0.1196  0.0360
    1W        W51741  16.527   5.816   9.237 -0.1703 -0.0021  0.0280
    1W        W51742  27.264  11.809   9.255  0.0712  0.2575  0.2236
    1W        W51743   6.227  14.935   0.456  0.0177 -0.2106 -0.0238
    1W        W51744   4.087  19.767   7.122 -0.0438  0.2880 -0.0049
    1W        W51745  23.555   8.823   7.169  0.0272  0.0533 -0.2758
    1W        W51746   1.660  12.223   5.941  0.0259 -0.1737  0.0713
    1W        W51747   9.301  17.826   9.450  0.2605 -0.0750  0.0868
    1W        W51748  29.702   5.114   1.714  0.1839 -0.1928 -0.1359
    1W        W51749   2.474  14.092   1.874  0.3740  0.0393 -0.1506
    1W        W51750  29.719  13.296   1.412 -0.2005  0.1671  0.1009
    1W        W51751   0.600   1.844   0.249  0.0130 -0.0101 -0.1446
    1W        W51752   0.806  18.769   1.374 -0.0430 -0.1600  0.0003
    1W        W51753  23.631   0.470   2.777 -0.3226  0.0013  0.0936
    1W        W51754  27.716  18.291   7.738  0.1854  0.0868  0.2926
    1W        W51755  12.305  21.075   1.063  0.1226 -0.0454  0.1717
    1W        W51756  12.777  20.266   7.782 -0.1558 -0.0311 -0.0980
    1W        W51757  13.269  22.877   7.499  0.0484  0.1962  0.1229
    1W        W51758  12.887   6.774   9.159 -0.0246 -0.2024  0.1164
    1W        W51759  23.404  21.925   0.153  0.2348  0.1152 -0.0770
    1W        W51760   5.899   6.413   9.252 -0.2286 -0.1257  0.2055
    1W        W51761  19.356  19.045   1.179 -0.1263  0.0720  0.0037
    1W        W51762  17.752  29.773   2.870 -0.0863  0.1303 -0.1125
    1W        W51763   3.285   1.013   7.008  0.0522  0.0457 -0.0298
    1W        W51764  23.489  26.428   7.162 -0.1382  0.1101 -0.0794
    1W        W51765  28.389  15.816   1.580  0.0363 -0.4889 -0.0656
    1W        W51766  25.639  12.481   2.037 -0.0679 -0.0645 -0.1839
    1W        W51767  16.926  18.481   8.005  0.0634 -0.2036  0.3243
    1W        W51768   2.019   6.673   8.969  0.0267 -0.0430 -0.1939
    1W        W51769   2.471  10.657   6.171 -0.0351 -0.2001  0.0433
    1W        W51770  23.284  10.741   8.360 -0.0589  0.0824  0.0798
    1W        W51771  16.706   5.978   7.669 -0.1135  0.1490  0.1290
    1W        W51772  15.337   5.541   6.625 -0.0662 -0.0294 -0.0587
    1W        W51773   7.070  20.892   8.332 -0.1250 -0.0209 -0.0233
    1W        W51774  13.028   1.908   6.593 -0.0311 -0.4108 -0.2011
    1W        W51775   1.332  29.089   6.541  0.1524  0.1434  0.1676
    1W        W51776   1.040   7.822   7.044  0.0539  0.0027  0.0679
    1W        W51777   7.801  21.404   9.254 -0.3124 -0.0369 -0.0632
    1W        W51778  26.507   7.414   6.807 -0.1308  0.1348 -0.1704
    1W        W51779  24.255  21.389   0.052 -0.0053 -0.0340  0.3527
    1W        W51780  25.715  27.745   0.331 -0.1608  0.1450  0.0429
    1W        W51781   5.131   6.530   7.905  0.3008 -0.3340 -0.1177
    1W        W51782   8.253  12.440   1.063 -0.2701  0.0542  0.0445
    1W        W51783   9.188   5.188   3.421 -0.1170  0.0391  0.1527
    1W        W51784  17.212  26.691   1.247  0.1876 -0.1251  0.0385
    1W        W51785  12.566   6.349   2.599  0.0246 -0.1365 -0.2902
    1W        W51786  22.721  18.448   2.015  0.3513 -0.1506  0.0765
    1W        W51787  12.461   1.210   3.180  0.0331 -0.1622 -0.1222
    1W        W51788   9.110  19.939   9.113 -0.1829 -0.2351 -0.2668
    1W        W51789   4.533  10.233   0.084 -0.1170 -0.0276 -0.0563
    1W        W51790  17.195  25.474   8.648  0.2643 -0.5058 -0.4237
    1W        W51791   6.628  28.467   1.089  0.1669 -0.0717  0.0437
    1W        W51792   5.693   0.650   8.299  0.0877  0.1070  0.3231
    1W        W51793  25.924  20.955   0.196 -0.0033 -0.0957  0.1199
    1W        W51794  19.848  27.565   0.135  0.1951  0.2922  0.0236
    1W        W51795   9.104   3.339   1.648  0.0223  0.2956 -0.0184
    1W        W51796   4.641  21.284   7.075  0.0138  0.0081  0.3327
    1W        W51797  28.893   8.319   6.285  0.0915  0.1142  0.1111
    1W        W51798  20.002   5.634   7.692 -0.1194 -0.0975 -0.3602
    1W        W51799  26.063  17.504   8.241 -0.2036 -0.0203 -0.0865
    1W        W51800  19.110  26.090   2.963 -0.0935 -0.1544  0.1815
    1W        W51801  27.274  12.362   0.305 -0.0146 -0.1092  0.0519
    1W        W51802   0.041   8.791   0.846  0.1593 -0.0015 -0.0775
    1W        W51803  14.589  29.687   9.197 -0.0600 -0.1464  0.3151
    1W        W51804   7.083  17.451   1.380  0.1373 -0.2086 -0.2573
    1W        W51805  17.391  14.842   6.989 -0.1514  0.1115 -0.1051
    1W        W51806  27.443   2.074   0.715 -0.1750  0.1125  0.0444
    1W        W51807  15.649   9.912   7.049 -0.2268  0.1676  0.0246
    1W        W51808  22.254  29.395   0.822  0.0204  0.3740 -0.2021
    1W        W51809   0.394  11.314   7.720 -0.1536  0.3284 -0.1053
    1W        W51810  26.399  26.839   2.542 -0.2285  0.1405  0.2193
    1W        W51811  25.602  24.709   1.558 -0.0178  0.2546  0.2597
    1W        W51812  19.648  17.330   1.462 -0.1532  0.1458  0.0436
    1W        W51813  27.397  16.848   0.302  0.0143 -0.1903 -0.0468
    1W        W51814   1.678  11.735   3.009 -0.1083 -0.3987 -0.0226
    1W        W51815  22.965  23.319   7.125  0.0409 -0.1299  0.0251
    1W        W51816  25.857  23.381   1.150 -0.0773 -0.1408  0.1847
    1W        W51817  27.239  20.064   8.746 -0.2256  0.0914 -0.3463
    1W        W51818   9.643   5.214   0.393  0.3191 -0.0851 -0.1100
    1W        W51819  24.236  23.316   0.905  0.1038  0.0145  0.5191
    1W        W51820   2.080  23.933   8.192  0.2899  0.0126  0.1838
    1W        W51821   2.173  28.578   7.609 -0.1776  0.1913 -0.1946
    1W        W51822  25.649   8.139   2.476  0.1116 -0.0608  0.2180
    1W        W51823   2.367  16.905   9.188  0.0528  0.1363  0.2928
    1W        W51824   8.918   6.901   0.537  0.0050  0.1855  0.2405
    1W        W51825  27.232  20.421   1.193 -0.1753  0.0420 -0.0135
    1W        W51826   4.712  26.987   6.936  0.1466  0.3020  0.1201
    1W        W51827   8.172   0.752   8.585  0.0572 -0.5069 -0.1419
    1W        W51828  29.649  20.297   8.820  0.0396  0.1571 -0.1046
    1W        W51829  21.048  25.880   1.714 -0.0153  0.0232 -0.2777
    1W        W51830  26.991   8.954   2.346 -0.0037 -0.1831 -0.1528
    1W        W51831  22.869  21.539   7.510 -0.2140 -0.0315 -0.2332
    1W        W51832   2.918   6.781   8.821 -0.1269  0.1609 -0.1807
    1W        W51833  20.142  23.097   7.598 -0.1991 -0.3398  0.0139
    1W        W51834   7.831  15.860   0.210  0.0186  0.1489  0.0336
    1W        W51835  13.095  12.466   2.023  0.0447  0.1322  0.2018
    1W        W51836   5.239   1.665   8.056  0.1975  0.1686  0.1378
    1W        W51837   0.311  11.288   8.729  0.1790 -0.3196  0.2136
    1W        W51838  23.821  15.122   0.706  0.2134 -0.0389  0.2141
    1W        W51839   3.537  12.794   2.345 -0.3014  0.0519 -0.0824
    1W        W51840  18.811   7.839   1.834  0.0266  0.3109 -0.0341
    1W        W51841  11.923  28.235   7.795 -0.0650  0.2548  0.1444
    1W        W51842  15.314  22.618   1.982 -0.1502  0.0900  0.0564
    1W        W51843  29.543  22.337   7.144 -0.1349  0.4904 -0.0303
    1W        W51844  12.593   4.164   7.016  0.0843  0.2475 -0.2747
    1W        W51845   0.630  26.836   1.933  0.0677  0.0468  0.2089
    1W        W51846   6.247   4.758   1.948  0.0170 -0.1145 -0.1346
    1W        W51847   2.876  26.248   1.358 -0.1366 -0.1347  0.0576
    1W        W51848  21.776   2.990   2.184  0.3728 -0.3141 -0.3382
    1W        W51849  21.974  21.789   1.334  0.0176 -0.0180 -0.0112
    1W        W51850  28.083   3.840   1.236 -0.0611 -0.1238  0.0501
    1W        W51851  18.984  28.145   9.362  0.1408  0.0093 -0.2225
    1W        W51852  11.380  13.645   0.874 -0.1521  0.2190 -0.2696
    1W        W51853  12.321  20.347   9.391 -0.1728  0.1245  0.1592
    1W        W51854   7.387  27.410   8.563  0.0413 -0.2082  0.1551
    1W        W51855  15.325  11.212   7.364 -0.1005  0.3576 -0.1399
    1W        W51856   8.471  25.014   1.800 -0.0060 -0.1935 -0.1320
    1W        W51857  27.991  13.145   7.406 -0.1173 -0.2035  0.2285
    1W        W51858  16.698   2.198   6.851  0.3365 -0.2772 -0.1039
    1W        W51859  20.705  14.043   6.811  0.0539  0.2163  0.0894
    1W        W51860  24.369  11.732   0.198 -0.0431  0.0034  0.0741
    1W        W51861   5.424  10.530   1.106  0.2236  0.1855 -0.1533
    1W        W51862  17.873   3.980   8.030 -0.0313 -0.2254  0.1190
    1W        W51863  22.682  11.468   8.967  0.1028 -0.1538 -0.0070
    1W        W51864  13.883  10.854   2.429  0.1164 -0.0123  0.1495
    1W        W51865  25.136  19.625   0.007 -0.0384  0.1981 -0.1067
    1W        W51866  13.909  17.461   0.375  0.2453  0.1347 -0.0589
    1W        W51867   6.706   1.135   2.952  0.3402 -0.2085  0.1380
    1W        W51868  22.889  26.638   1.189  0.2832  0.1633 -0.1263
    1W        W51869  26.189   7.313   1.759  0.0189  0.0098  0.1323
    1W        W51870  23.271  15.821   6.726  0.1387  0.0149 -0.1312
    1W        W51871   8.925  28.907   2.126 -0.2228 -0.0271  0.1527
    1W        W51872  10.566  18.646   0.043  0.1695  0.2021  0.0505
    1W        W51873  15.765   9.338   1.230  0.2111 -0.3286  0.1379
    1W        W51874  17.943   6.511   1.189 -0.2838 -0.0848 -0.0275
    1W        W51875  24.500  25.635   2.631 -0.0057 -0.2405  0.0198
    1W        W51876  15.230   6.014   6.853  0.2593 -0.1258  0.0875
    1W        W51877  11.763  10.390   8.588  0.1170  0.3206  0.4241
    1W        W51878   4.905  13.311   7.976  0.1607 -0.0334 -0.1572
    1W        W51879  26.565  27.801   9.343  0.4493  0.1887 -0.3678
    1W        W51880  17.459  23.402   7.100  0.0001 -0.0222  0.2014
    1W        W51881  23.521   3.860   7.118  0.1922 -0.2060  0.2987
    1W        W51882   6.194  28.215   1.122 -0.0028  0.0123 -0.1274
    1W        W51883  10.403  17.261   7.024  0.2477  0.0998 -0.3353
    1W        W51884   5.671  25.845   2.146 -0.3136  0.1933 -0.3502
    1W        W51885  14.733  27.123   7.260 -0.0690  0.1661 -0.0663
    1W        W51886  14.294  10.642   1.822  0.0345  0.1141 -0.2191
    1W        W51887  20.542  29.592   8.170  0.2345  0.2280  0.0573
    1W        W51888   7.332   7.193   8.463 -0.1248 -0.4183 -0.1317
    1W        W51889  10.266  28.111   0.280 -0.2064 -0.1842 -0.0906
    1W        W51890  23.862   3.669   9.397  0.0342 -0.1701 -0.2806
    1W        W51891   6.342  29.073   1.522  0.1698 -0.0315 -0.1644
    1W        W51892  11.445   0.262   9.350  0.0497 -0.1499  0.0945
    1W        W51893   6.391   8.496   6.970 -0.0749 -0.0657 -0.0827
    1W        W51894   3.535  11.491   2.055 -0.1669 -0.0957 -0.0602
    1W        W51895  15.388  26.203   2.958 -0.1394 -0.0872 -0.5309
    1W        W51896  15.854   1.745   1.535  0.1176 -0.0820  0.4093
    1W        W51897  19.983  28.241   3.653  0.0493 -0.2350  0.1423
    1W        W51898   0.590  15.012   2.453 -0.0873  0.1296  0.0986
    1W        W51899  21.230   9.281   8.711  0.0203  0.0407  0.0241
    1W        W51900   0.686  10.108   2.181  0.0317  0.0637  0.0029
    1W        W51901  14.831  18.309   7.301 -0.0712 -0.0052  0.2128
    1W        W51902  12.917  10.008   2.230 -0.2097  0.0546 -0.1496
    1W        W51903  18.403  18.657   1.250  0.1628  0.4132  0.1724
    1W        W51904  14.187  20.900   6.641  0.0572  0.1318  0.1098
    1W        W51905   5.469  11.593   9.160 -0.1248  0.3091  0.3383
    1W        W51906  12.653   5.313   0.926 -0.3154 -0.0364 -0.1801
    1W        W51907  13.854   3.183   1.203  0.4908  0.3953  0.3162
    1W        W51908  10.828   2.472   9.054 -0.3376 -0.0650 -0.4064
    1W        W51909  18.866   0.366   0.643 -0.3550 -0.1907 -0.0038
    1W        W51910   3.028  12.963   2.024 -0.0825  0.1306  0.0149
    1W        W51911   5.121   9.101   1.534  0.3732 -0.0933  0.0848
    1W        W51912   1.601   9.967   6.851  0.1323  0.3988 -0.0736
    1W        W51913  25.659  15.715   9.451 -0.0470 -0.0560 -0.0030
    1W        W51914   2.186   2.801   0.610  0.0470  0.0117 -0.0801
    1W        W51915   9.879   4.593   0.739  0.0507  0.2150  0.0662
    1W        W51916   1.699  22.925   0.181  0.0958 -0.0336 -0.2030
    1W        W51917   5.742   6.740   1.978  0.1652  0.3736 -0.1848
    1W        W51918  24.898  20.477   1.044  0.1043  0.0326 -0.3412
    1W        W51919  16.138  15.836   1.722  0.0483  0.0772  0.0058
    1W        W51920  17.088  18.563   1.752  0.0070  0.2529 -0.0179
    1W        W51921  13.978  19.060   7.282 -0.0016 -0.0060 -0.0289
    1W        W51922  25.490   6.914   1.815 -0.2731  0.0832  0.2164
    1W        W51923  22.898   9.632   1.186 -0.3657 -0.1519  0.0403
    1W        W51924  18.401  11.551   7.784 -0.1348  0.1028  0.3757
    1W        W51925  15.229   3.286   0.968  0.1674  0.0372 -0.3214
    1W        W51926   1.308   9.697   0.970 -0.2470  0.2339  0.1210
    1W        W51927  15.557  29.716   7.354 -0.0205 -0.1069  0.0467
    1W        W51928   0.715   1.787   2.286 -0.0518  0.0274 -0.0503
    1W        W51929   4.072  29.482   9.287 -0.0399  0.2603  0.2309
    1W        W51930   7.572   9.591   8.542  0.2510  0.1073 -0.0443
    1W        W51931  24.302  22.089   2.795 -0.0055  0.2239  0.0069
    1W        W51932   1.309  29.345   6.981 -0.0409 -0.2229 -0.0563
    1W        W51933   1.715  14.195   0.562 -0.1556 -0.2346 -0.1052
    1W        W51934   5.941  23.381   2.460  0.0675  0.0189  0.0932
    1W        W51935  22.218  12.416   9.104  0.1155  0.1182 -0.0430
    1W        W51936  23.896   9.278   7.245  0.2409  0.1024  0.1920
    1W        W51937   3.808  23.376   7.100 -0.1214  0.2340  0.2385
    1W        W51938  15.997  25.396   0.113 -0.0651  0.2172  0.0407
    1W        W51939   7.134  12.458   9.071 -0.4597 -0.1137 -0.1936
    1W        W51940  12.447  10.267   7.060 -0.1146  0.2510 -0.0730
    1W        W51941   3.162   3.536   3.702 -0.2811  0.0053 -0.0948
    1W        W51942  16.769  14.342   0.496 -0.0731 -0.2744 -0.0404
    1W        W51943  21.651  17.434   6.654  0.0094 -0.0094 -0.2291
    1W        W51944  20.843   1.817   0.518  0.0797  0.0628 -0.1692
    1W        W51945   4.711   7.898   7.200  0.0900 -0.2319  0.0054
    1W        W51946   4.346  16.393   9.017 -0.3573  0.1983 -0.1419
    1W        W51947  20.341  28.503   2.764 -0.0535 -0.2048 -0.1599
    1W        W51948  20.501  10.634   6.462  0.5298  0.0121  0.0600
    1W        W51949  16.518   2.758   0.925 -0.0742  0.2516  0.0052
    1W        W51950   4.760   1.721   1.621 -0.0102  0.2077  0.1722
    1W        W51951  19.791   4.818   8.947  0.1082 -0.1409  0.0312
    1W        W51952  17.586  15.848   0.718  0.0010 -0.1666  0.1049
    1W        W51953   5.440  12.517   5.750  0.0112  0.1283 -0.2063
    1W        W51954  27.806  10.440   6.164 -0.0940  0.0300 -0.2379
    1W        W51955  13.809   6.978   2.814  0.2499  0.1124  0.3245
    1W        W51956  22.474  18.974   0.446 -0.0420  0.3321 -0.0312
    1W        W51957   6.315  21.990   7.977  0.0165 -0.0642  0.3047
    1W        W51958   3.269  11.764   0.409  0.2034 -0.0592 -0.0694
    1W        W51959   8.138   1.901   1.392  0.0140  0.0316 -0.2428
    1W        W51960  22.240   1.745   7.686  0.2819 -0.2132  0.1154
    1W        W51961  27.874   8.748   9.217  0.1262 -0.1040  0.1387
    1W        W51962   3.729  14.030   7.542 -0.1356  0.2174  0.1706
    1W        W51963  16.112  14.953   7.607 -0.2157 -0.0465 -0.0658
    1W        W51964   5.273  22.827   6.937  0.1419 -0.2448  0.1188
    1W        W51965  11.653  12.540   0.686 -0.0376  0.1209  0.0056
    1W        W51966  27.276  29.295   1.334 -0.1932 -0.1476 -0.3584
    1W        W51967  24.921  20.629   7.071 -0.1248 -0.1161 -0.1761
    1W        W51968  18.401  24.849   3.585 -0.1609 -0.4709  0.0057
    1W        W51969  13.261  29.557   9.210 -0.2321  0.2437 -0.1535
    1W        W51970  20.684  13.164   6.404 -0.0186 -0.2399  0.0534
    1W        W51971   8.079  12.017   1.303  0.0462 -0.1844  0.1076
    1W        W51972   9.282  12.300   2.553  0.1442  0.0623  0.2132
    1W        W51973   0.801  20.356   6.161 -0.1446 -0.1845 -0.4442
    1W        W51974  25.333   0.664   9.365  0.0287 -0.1911 -0.2468
    1W        W51975  26.080  19.237   7.454 -0.1673 -0.1171 -0.1334
    1W        W51976   6.813  27.943   6.744  0.1042  0.1264  0.1209
    1W        W51977   5.936   6.722   2.939  0.0613  0.0354 -0.0435
    1W        W51978  13.412  12.977   1.440  0.0966  0.2598 -0.2218
    1W        W51979   4.821  21.394   8.159 -0.1030  0.0133  0.1535
    1W        W51980  19.188   7.836   8.467  0.1239 -0.4421 -0.1336
    1W        W51981   1.579  12.947   0.283  0.0251  0.0415  0.0265
    1W        W51982  20.121   4.380   6.615 -0.1693  0.1157  0.3503
    1W        W51983  18.160  25.407   2.334 -0.2080  0.0963 -0.0380
    1W        W51984  19.630   4.384   6.668 -0.0277 -0.2258  0.0116
    1W        W51985   1.046  21.566   5.855  0.0163  0.5562  0.1126
    1W        W51986   0.058  26.876   1.254  0.1687  0.1929 -0.4850
    1W        W51987  16.095   2.758   8.750  0.2528  0.1701  0.1561
    1W        W51988  12.600  14.110   2.266  0.3772 -0.2364 -0.0900
    1W        W51989  26.293  14.525   6.345 -0.1444 -0.1112  0.0537
    1W        W51990  29.526  14.902   2.520 -0.1019 -0.1432  0.1460
    1W        W51991   8.260  28.815   6.908  0.2799  0.2977  0.3668
    1W        W51992  21.928  15.414   7.157 -0.0696  0.1694  0.0607
    1W        W51993  19.300  16.887   0.494  0.0665 -0.0262  0.2664
    1W        W51994   3.963   0.712   6.499 -0.3464  0.0415 -0.1426
    1W        W51995  22.692  15.436   8.754  0.1949 -0.4091 -0.0291
    1W        W51996  27.539   0.670   7.107 -0.2311 -0.1439  0.0096
    1W        W51997   8.753  11.828   9.187  0.3400  0.0796 -0.0076
    1W        W51998  13.583  14.966   2.144 -0.1402 -0.1247  0.1255
    1W        W51999   1.564  29.095   8.175 -0.2151 -0.0812  0.3033
    1W        W52000  19.844  20.586   6.976  0.1022 -0.0292  0.0502
    1W        W52001  25.450  24.454   2.295 -0.0936  0.0344 -0.0851
    1W        W52002  29.513  15.820   7.323  0.0659  0.3455 -0.0736
    1W        W52003  27.988  23.977   8.300 -0.1384 -0.2657  0.1832
    1W        W52004   6.816  28.914   2.483 -0.1838 -0.0497 -0.1578
    1W        W52005  20.702  28.429   3.544 -0.2650 -0.0113  0.2313
    1W        W52006   1.749   1.400   7.022 -0.3343 -0.3509 -0.0165
    1W        W52007  26.220   2.880   2.587 -0.0942 -0.1014 -0.0245
    1W        W52008   6.108  29.064   0.054 -0.1928  0.4049 -0.0785
    1W        W52009   3.144  21.181   5.882 -0.2980  0.1317  0.0233
    1W        W52010  20.535  27.356   2.795  0.3260  0.2547 -0.0081
    1W        W52011  22.286   4.386   8.362 -0.2935 -0.0507  0.1127
    1W        W52012   0.982   9.450   1.402 -0.1655  0.0209 -0.1061
    1W        W52013  12.776  28.867   7.858  0.0172  0.0705  0.1028
    1W        W52014  11.308   7.746   3.282  0.1349  0.3613 -0.2227
    1W        W52015  23.333   5.271   1.908 -0.0104 -0.1111  0.2703
    1W        W52016  27.604  13.815   8.613  0.0088 -0.2575  0.0609
    1W        W52017  14.788  24.347   2.699 -0.2650 -0.0544  0.0947
    1W        W52018  27.607  12.392   8.803  0.2677 -0.0018  0.1481
    1W        W52019  25.331   1.812   0.202  0.4923 -0.1567  0.0711
    1W        W52020  13.245   5.247   2.815  0.0634 -0.3015 -0.2932
    1W        W52021   1.885  16.011   1.217  0.0074  0.2200  0.2405
    1W        W52022   4.667  22.086   0.525  0.0429  0.1350  0.1168
    1W        W52023   1.159  24.511   5.371 -0.0886 -0.3843 -0.0348
    1W        W52024   7.545  16.289   1.474 -0.0331 -0.0519 -0.5106
    1W        W52025  13.535  22.331   2.377  0.2253  0.2186  0.1070
    1W        W52026   2.595  12.036   8.186  0.0538  0.1673 -0.3133
    1W        W52027   7.990  10.934   0.835 -0.0403  0.0467  0.1763
    1W        W52028   1.978  21.623   9.206  0.0597  0.2989  0.0004
    1W        W52029   5.573  18.569   6.578  0.0728 -0.0710 -0.0606
    1W        W52030  12.191   4.358   0.678 -0.1937  0.1341 -0.2507
    1W        W52031  29.557   4.079   1.988 -0.2000 -0.0833 -0.2360
    1W        W52032  23.254  29.334   8.702 -0.1074  0.0842  0.2804
    1W        W52033  15.251  23.638   2.002  0.0385  0.2368  0.0719
    1W        W52034   2.688  17.187   8.350 -0.0154 -0.2595  0.1691
    1W        W52035   6.676  23.696   7.198 -0.0766  0.0146 -0.0468
    1W        W52036   6.597   9.558   8.777  0.1526 -0.1407  0.0582
    1W        W52037   7.565  17.387   0.144  0.0278 -0.1282 -0.1564
    1W        W52038  12.139  12.110   1.290  0.0000  0.1022 -0.0206
    1W        W52039  20.854  29.219   8.186 -0.0511 -0.0161 -0.0124
    1W        W52040  26.155  14.366   8.650 -0.1383  0.0721 -0.4110
    1W        W52041  20.988  20.926   8.529  0.2674  0.1670 -0.3121
    1W        W52042  25.402   8.630   1.446 -0.1004  0.1504 -0.0477
    1W        W52043  19.224  24.441   1.002 -0.1228 -0.1757  0.1425
    1W        W52044   2.189   2.290   0.873 -0.0808 -0.2021  0.0812
    1W        W52045  24.307   7.036   6.431  0.0942 -0.0292  0.2614
    1W        W52046   3.709   5.797   7.869 -0.0276  0.0076  0.2775
    1W        W52047  13.623   3.310   0.156 -0.1557 -0.1868 -0.0063
    1W        W52048  10.010  11.320   6.914  0.2228  0.2245  0.4223
    1W        W52049   4.694  13.055   0.958 -0.2145  0.0593 -0.4271
    1W        W52050   9.095   4.647   8.988 -0.2084  0.0495 -0.2553
    1W        W52051  14.057  27.998   2.647 -0.0835 -0.0565  0.1299
    1W        W52052   1.200  22.955   1.449 -0.0698  0.2801 -0.1036
    1W        W52053  29.738  27.628   0.966 -0.2590 -0.1008 -0.1769
    1W        W52054   6.871  23.833   8.483  0.0899 -0.1340 -0.3431
    1W        W52055   5.219   4.681   1.888  0.0312  0.0124 -0.2085
    1W        W52056  19.424  19.841   8.056 -0.0271 -0.0660 -0.1393
    1W        W52057  18.360  16.476   6.517  0.1436  0.2440  0.0145
    1W        W52058   9.324  28.592   8.483 -0.1450  0.1543  0.2405
    1W        W52059  28.424  21.562   0.358 -0.0930 -0.0390 -0.1870
    1W        W52060  17.729  12.306   1.068 -0.1040  0.1036 -0.1441
    1W        W52061  14.046  16.097   7.914  0.1255  0.2997 -0.0554
    1W        W52062   3.258  15.688   0.005 -0.0286  0.2512 -0.1330
    1W        W52063  26.285   7.176   3.370 -0.0781  0.0851 -0.3038
    1W        W52064  20.603  14.461   7.065 -0.1216 -0.2315 -0.3656
    1W        W52065  20.542   4.797   2.251  0.1332  0.1551  0.2110
    1W        W52066  26.394   4.170   0.659 -0.0147 -0.0847  0.0023
    1W        W52067  17.850   0.163   6.850 -0.0245  0.1674  0.0392
    1W        W52068   6.234   0.032   7.185 -0.0781 -0.0258  0.0659
    1W        W52069   7.964  26.992   6.872  0.0143 -0.2500 -0.1029
    1W        W52070  12.786  14.663   0.143  0.1918  0.2490 -0.2466
    1W        W52071   3.483  14.181   2.352  0.1328  0.0379 -0.0449
    1W        W52072   3.147  25.224   1.610 -0.2420 -0.0870  0.0111
    1W        W52073  13.317   5.735   1.970  0.0599  0.3019  0.0939
    1W        W52074  25.746  18.082   2.608 -0.0650 -0.1788 -0.2559
    1W        W52075  12.177   3.381   8.117 -0.1650 -0.0077 -0.0311
    1W        W52076  26.177   6.708   0.906  0.2083  0.0660 -0.0621
    1W        W52077  18.197  11.491   0.985  0.0973  0.0391  0.0014
    1W        W52078  13.195  14.688   1.031 -0.0611  0.0361 -0.0603
    1W        W52079  24.712  12.225   8.337 -0.0135 -0.0115 -0.0620
    1W        W52080  17.564  17.837   0.901  0.1461 -0.0990 -0.0104
    1W        W52081  27.389   5.401   1.786  0.0373 -0.1456  0.2983
    1W        W52082   4.607  24.528   9.323 -0.3539  0.0352 -0.0767
    1W        W52083  25.792  23.629   7.762  0.1799 -0.1999  0.2213
    1W        W52084   1.220   0.659   6.839 -0.0983  0.0429 -0.0638
    1W        W52085  20.541   0.848   8.425 -0.0552 -0.2302 -0.2308
    1W        W52086   6.217   6.615   0.834  0.1690  0.1563  0.2566
    1W        W52087  26.559  21.705   1.446  0.1415  0.3436 -0.0649
    1W        W52088   0.746  29.650   2.611 -0.0753 -0.0314 -0.0119
    1W        W52089   4.166  13.859   7.041 -0.1123  0.2725  0.1396
    1W        W52090  11.516  13.971   6.795 -0.1878  0.3825  0.1767
    1W        W52091   0.784   7.205   1.879  0.1059 -0.1526 -0.0235
    1W        W52092  24.025   1.391   8.860  0.1981  0.1310  0.1115
    1W        W52093  22.102  15.609   0.895  0.1636  0.2107  0.1460
    1W        W52094  13.774  25.585   8.845  0.0239 -0.0470  0.3297
    1W        W52095  17.264  16.461   6.628 -0.1195 -0.1360  0.1838
    1W        W52096   5.224   3.583   0.330  0.0016 -0.0940 -0.2934
    1W        W52097   9.183   9.450   2.356  0.0898 -0.1435  0.0194
    1W        W52098  29.567   0.675   6.958 -0.1935 -0.2108  0.0560
    1W        W52099  17.523  29.037   8.990 -0.2229 -0.2222  0.2355
    1W        W52100  19.684  21.919   9.436  0.1604 -0.0509  0.1888
    1W        W52101  17.203   5.618   1.517  0.0521  0.0789  0.3912
    1W        W52102  25.203  20.032   1.336  0.0611  0.0926  0.3211
    1W        W52103  28.625   6.847   8.289 -0.0624  0.0244 -0.0090
    1W        W52104  19.064  22.766   0.747  0.0714  0.0124 -0.2365
    1W        W52105  16.422  27.963   1.665  0.1601 -0.1076  0.1886
    1W        W52106  20.040  10.278   9.325  0.0967 -0.0125  0.1204
    1W        W52107  14.700  12.899   0.922 -0.0101 -0.1277 -0.0067
    1W        W52108  14.960  23.496   9.120 -0.0469  0.1291  0.2260
    1W        W52109  21.756  25.466   1.405 -0.2907  0.0667  0.0672
    1W        W52110  14.419   9.403   0.422 -0.0507  0.0325  0.4001
    1W        W52111   0.039   5.904   8.903  0.1093  0.0322 -0.3958
    1W        W52112  18.929  14.604   7.659 -0.0987  0.1489  0.0328
    1W        W52113  19.035  10.492   6.968 -0.1628 -0.0763 -0.2273
    1W        W52114   9.452  26.617   7.627  0.0928 -0.2219 -0.0355
    1W        W52115  24.124  15.345   8.211  0.0103 -0.2641 -0.0657
    1W        W52116   7.584  25.171   6.543  0.2462  0.3262 -0.0831
    1W        W52117  16.339  17.511   0.205 -0.3676 -0.0962 -0.0557
    1W        W52118  10.669  11.985   7.823  0.1270  0.2265  0.0220
    1W        W52119  23.997  20.083   8.974  0.1745 -0.1073  0.0861
    1W        W52120  25.419  26.962   9.005  0.0744  0.1484  0.0865
    1W        W52121  20.384   4.625   7.099 -0.0368  0.0930 -0.1942
    1W        W52122   7.834   1.645   7.169 -0.1787 -0.2846 -0.2012
    1W        W52123  13.544  12.282   1.444  0.0912  0.0888  0.2052
    1W        W52124   3.439   6.011   7.467  0.2562  0.0614 -0.0042
    1W        W52125  22.069  24.014   1.834  0.1640  0.0925 -0.1681
    1W        W52126   7.015  16.391   7.628 -0.0058  0.0028  0.0644
    1W        W52127  27.263   1.287   8.530 -0.0540 -0.1859 -0.1724
    1W        W52128  17.385  29.548   1.286  0.1179 -0.0152  0.2044
    1W        W52129  13.943   4.363   8.078  0.1324 -0.0920  0.3526
    1W        W52130  14.967  18.553   9.221 -0.0848  0.1770  0.1270
    1W        W52131  21.997  24.121   7.123  0.3759  0.1111  0.0738
    1W        W52132  12.915  18.684   8.716 -0.0305 -0.0072  0.1645
    1W        W52133  26.346  13.377   1.034 -0.1329  0.0411  0.0122
    1W        W52134  17.281  22.491   7.960  0.1351 -0.3029  0.1644
    1W        W52135  15.927  11.734   0.870 -0.0641 -0.0935  0.0500
    1W        W52136   9.056  25.119   7.404 -0.3642 -0.2443  0.1158
    1W        W52137  21.948  23.627   1.601  0.3524 -0.1800 -0.0624
    1W        W52138  14.540   9.737   1.919  0.0018 -0.1229  0.0054
    1W        W52139  28.926   2.298   7.507 -0.4042  0.1786  0.0475
    1W        W52140  26.714  18.392   1.444 -0.0289 -0.1178 -0.1384
    1W        W52141   2.545   6.635   9.076 -0.1219 -0.1411  0.3037
    1W        W52142  27.487   2.804   7.284 -0.1408 -0.3167 -0.4296
    1W        W52143  23.138  16.415   9.340 -0.0316 -0.1987  0.1328
    1W        W52144   5.129  12.628   1.130  0.1267 -0.3725  0.2185
    1W        W52145   1.510  28.966   3.150 -0.2168  0.1621  0.0387
    1W        W52146  11.511  21.834   0.819 -0.0780  0.1619  0.0919
    1W        W52147  25.039  16.186   0.689  0.1945  0.1238 -0.2100
    1W        W52148   7.502  28.815   9.124  0.3186 -0.3429  0.0624
    1W        W52149  23.572   1.455   0.743 -0.2738 -0.1013 -0.2098
    1W        W52150   8.187  23.612   1.415 -0.2014 -0.2018  0.1077
    1W        W52151  10.902  29.312   0.040 -0.2041 -0.3737 -0.0149
    1W        W52152   6.813  23.516   2.234 -0.2584  0.0896 -0.1363
    1W        W52153   4.860  23.981   7.870  0.1119  0.0646 -0.1729
    1W        W52154  16.639  27.216   6.719 -0.3425 -0.1902  0.1634
    1W        W52155  26.369  23.718   9.000 -0.0982 -0.0366  0.2353
    1W        W52156  14.316  28.392   8.444 -0.1460  0.0010 -0.0600
    1W        W52157  13.718   6.384   1.318 -0.1667  0.1064 -0.0203
    1W        W52158  26.938  17.398   0.263 -0.0598  0.1409  0.0945
    1W        W52159  10.495   7.271   8.752 -0.1752  0.1367  0.1469
    1W        W52160  15.584  26.055   8.055  0.2718 -0.1187  0.0666
    1W        W52161  29.344  21.893   7.918  0.2113  0.2047  0.0785
    1W        W52162  27.947  19.843   6.952  0.2820 -0.0896 -0.0619
    1W        W52163   5.084  14.465   9.063 -0.0352  0.3166  0.1951
    1W        W52164   5.843  23.388   0.107  0.2011 -0.0404 -0.0094
    1W        W52165  12.313  16.345   6.711  0.1094  0.2116 -0.3453
    1W        W52166  26.515  16.731   0.401 -0.0460  0.0147 -0.0623
    1W        W52167   2.299   9.740   8.845 -0.2142  0.0878 -0.2524
    1W        W52168   3.107  20.823   9.154  0.0220 -0.0009  0.0561
    1W        W52169  18.727  26.584   0.860  0.0198  0.1708 -0.2485
    1W        W52170  20.533  14.137   1.939 -0.0831  0.0273 -0.1481
    1W        W52171  13.313  16.321   1.861  0.0649 -0.0471 -0.0903
    1W        W52172   8.856  27.283   1.159  0.0442 -0.0098  0.1289
    1W        W52173  16.078   5.169   1.187 -0.1926  0.2173  0.1848
    1W        W52174  27.136  26.557   9.220 -0.1644 -0.2649 -0.2053
    1W        W52175   9.079  17.477   7.381  0.1164  0.3427  0.2078
    1W        W52176  17.333  15.185   8.163  0.0777 -0.0545  0.0827
    1W        W52177  17.607  10.867   8.013 -0.1162 -0.1062  0.0236
    1W        W52178  14.532  26.629   7.262 -0.0884  0.2037 -0.1645
    1W        W52179  22.240  29.082   6.690 -0.0939  0.2959 -0.0556
    1W        W52180   7.898  20.415   0.005  0.1712  0.1458 -0.2939
    1W        W52181   4.156   0.173   1.350 -0.0790  0.0144 -0.0615
    1W        W52182  29.218  27.442   0.010  0.2485 -0.2357 -0.1979
    1W        W52183  28.300   4.194   2.177  0.0014 -0.3620 -0.0468
    1W        W52184  28.625   2.688   7.267 -0.2337  0.2459  0.1416
    1W        W52185  16.227  16.579   1.724  0.1639  0.3932  0.0121
    1W        W52186  12.083   2.072   2.816 -0.1820 -0.0046  0.2207
    1W        W52187   6.879  22.537   0.435 -0.0922 -0.3786 -0.2150
    1W        W52188   4.602  23.833   6.993 -0.0013  0.1801  0.0744
    1W        W52189   8.943   4.770   3.372  0.1118 -0.1963 -0.1379
    1W        W52190  15.231  23.049   9.126 -0.1121  0.1250 -0.2831
    1W        W52191  15.663  25.367   9.131 -0.5743 -0.0032 -0.1414
    1W        W52192   4.291  25.471   9.126  0.1030 -0.2877  0.2352
    1W        W52193  13.185  20.062   0.033  0.0805  0.0818  0.0885
    1W        W52194  13.624  12.012   7.283 -0.0899  0.2491  0.1120
    1W        W52195  24.516  18.099   6.649 -0.0223 -0.1919  0.0894
    1W        W52196  15.668  13.815   8.334  0.3105 -0.1267  0.0584
    1W        W52197   2.916  16.971   8.008  0.0272  0.2987  0.1679
    1W        W52198   2.518  15.797   8.788 -0.0478 -0.0889  0.0769
    1W        W52199  10.838   9.345   9.096  0.2470  0.1575  0.4480
    1W        W52200  26.093   8.868   0.271 -0.2891  0.3417 -0.1915
    1W        W52201  25.590  19.287   0.746 -0.1741  0.0737 -0.0169
    1W        W52202   3.723   3.145   0.016 -0.1383 -0.0930  0.3691
    1W        W52203  14.012   0.312   8.736  0.0861  0.0323 -0.1099
    1W        W52204  22.681  25.562   0.171  0.0084 -0.0730  0.0191
    1W        W52205   3.998  26.423   7.811  0.1104 -0.0412 -0.0684
    1W        W52206   4.302  25.924   8.655 -0.0505  0.2045 -0.1333
    1W        W52207   7.643  25.949   0.154 -0.1462 -0.0113 -0.2416
    1W        W52208  23.847  14.538   8.420 -0.3951 -0.1197 -0.0129
    1W        W52209  20.118  19.098   7.044 -0.0079  0.1497 -0.1824
    1W        W52210  16.830  18.080   1.745 -0.0676  0.4041  0.4598
    1W        W52211   0.880  22.534   6.749 -0.3372  0.0035 -0.1861
    1W        W52212   0.027   6.439   8.760  0.1064 -0.0109 -0.1611
    1W        W52213  10.877  18.497   1.896  0.1780  0.1308  0.1292
    1W        W52214  17.341  11.823   8.372 -0.0705  0.0441 -0.1168
    1W        W52215  12.768   4.575   0.535 -0.1769 -0.1506  0.0127
    1W        W52216   4.372   4.584   7.936 -0.1326 -0.0627  0.0073
    1W        W52217  23.463  28.934   7.998 -0.2400  0.0141 -0.0402
    1W        W52218  24.908  15.196   8.071 -0.0577 -0.1918 -0.2294
    1W        W52219   8.489  10.923   0.868  0.0332 -0.4453 -0.0752
    1W        W52220  15.797  27.549   8.173 -0.0133 -0.1576 -0.0231
    1W        W52221  12.933  29.545   7.434  0.3631  0.0201  0.1915
    1W        W52222   1.382  15.415   7.005  0.0394  0.0073  0.0019
    1W        W52223  20.744  12.195   0.778 -0.1548  0.0329  0.2320
    1W        W52224  20.171  27.195   0.321  0.0663  0.2172 -0.0979
    1W        W52225   2.403  26.836   6.906  0.2258 -0.0805  0.1049
    1W        W52226   8.558  25.529   6.606  0.0437 -0.0944  0.2207
    1W        W52227   7.080   9.100   1.304 -0.1554 -0.1005 -0.1289
    1W        W52228   5.568  20.953   6.518 -0.1169  0.0277 -0.3938
    1W        W52229  13.189   3.507   3.554 -0.0924  0.2695 -0.2657
    1W        W52230   1.885  23.668   7.855  0.0149  0.1335  0.0916
    1W        W52231   8.804  23.270   0.755  0.3120 -0.1008  0.1383
    1W        W52232  23.038  15.331   1.658  0.0141  0.1246  0.1245
    1W        W52233  15.029   0.244   3.087 -0.1462  0.3596 -0.1185
    1W        W52234   9.171  26.863   2.404  0.0628  0.0781 -0.1586
    1W        W52235  27.364   6.953   2.386  0.1006 -0.0098 -0.1204
    1W        W52236  20.622   7.550   9.363 -0.2968 -0.0783 -0.1266
    1W        W52237   8.547  24.434   1.358  0.2772  0.0802 -0.0745
    1W        W52238  12.082  23.194   8.579  0.2173 -0.2433  0.1093
    1W        W52239   4.072  23.701   0.315  0.1202  0.3642 -0.3181
    1W        W52240  16.041   5.655   7.625 -0.1024  0.1460  0.2651
    1W        W52241  29.232  11.941   7.161 -0.0528 -0.2094  0.1776
    1W        W52242  10.459  29.782   7.054 -0.2163  0.1792 -0.1512
    1W        W52243   2.103  12.848   9.434 -0.1878  0.1709  0.1668
    1W        W52244   4.132  11.774   0.910 -0.1238 -0.0925 -0.0568
    1W        W52245  19.845  14.947   2.041  0.1127 -0.1087  0.1916
    1W        W52246  10.475  24.689   6.968  0.2024  0.1778  0.2857
    1W        W52247  28.479  16.026   1.097 -0.0520  0.2306  0.0766
    1W        W52248  24.078  22.085   1.391  0.0297 -0.0746  0.1885
    1W        W52249  19.314  12.403   0.914 -0.0060  0.1708  0.0653
    1W        W52250  20.104  21.887   2.457  0.0396 -0.1077  0.1157
    1W        W52251  23.924  18.403   2.245 -0.1380 -0.0887  0.0194
    1W        W52252   3.073   8.608   7.669  0.1012 -0.0125  0.3657
    1W        W52253  22.692   7.962   8.998  0.1630  0.0804 -0.0716
    1W        W52254  20.947  29.589   9.114 -0.2040  0.3286  0.1870
    1W        W52255   2.966   1.154   0.302  0.0995  0.0112  0.2294
    1W        W52256  29.048  22.593   0.825  0.0603 -0.1035 -0.1423
    1W        W52257   6.146   8.832   1.404 -0.0169  0.1384 -0.0226
    1W        W52258  19.724  27.005   7.791  0.0369 -0.0647 -0.3008
    1W        W52259   1.878  12.248   0.877 -0.2855 -0.0687 -0.0497
    1W        W52260   3.352   6.759   0.180  0.2396 -0.2020  0.2210
    1W        W52261   7.292   6.392   2.629  0.1847  0.3865  0.1756
    1W        W52262  10.577  26.799   8.518  0.0332  0.0320 -0.1597
    1W        W52263  19.716  11.583   8.910  0.1888 -0.0577 -0.0743
    1W        W52264   9.039   2.343   7.619  0.0315  0.2319  0.4598
    1W        W52265  13.670   1.636   8.916 -0.1786 -0.3293  0.0411
    1W        W52266  24.007  18.982   0.325  0.0931 -0.1452 -0.0292
    1W        W52267  11.506  15.775   0.033 -0.2375  0.2222 -0.3206
    1W        W52268   8.554  24.408   2.045  0.1075 -0.1574 -0.3420
    1W        W52269  20.975  11.121   0.925 -0.0735 -0.2339 -0.0683
    1W        W52270  27.871  29.171   3.093 -0.1132 -0.1688  0.1121
    1W        W52271  21.606  20.366   0.550 -0.3091 -0.0220 -0.0275
    1W        W52272  16.858   3.407   6.553 -0.1227 -0.0909  0.0710
    1W        W52273  17.838  11.727   0.197  0.2554 -0.1740 -0.2450
    1W        W52274   4.821  18.190   7.247 -0.1673 -0.2587  0.3026
    1W        W52275  24.129  22.540   8.173 -0.0078 -0.0349  0.0171
    1W        W52276  20.071  23.591   1.218  0.0907  0.0845 -0.3588
    1W        W52277   0.644   2.531   7.878  0.0473 -0.1596 -0.2589
    1W        W52278   2.492   2.376   1.923 -0.0235  0.0561  0.2046
    1W        W52279  11.878   8.640   0.044  0.1602 -0.0629  0.1157
    1W        W52280  26.561   3.405   2.951 -0.0926 -0.0331 -0.0231
    1W        W52281   0.441  26.136   0.448 -0.2795  0.2421 -0.1476
    1W        W52282   0.597  25.687   6.211  0.1814 -0.1997 -0.2388
    1W        W52283  23.914   5.376   0.749 -0.0665 -0.3918 -0.1560
    1W        W52284  14.448  28.025   0.164 -0.2061  0.0720  0.0588
    1W        W52285   5.131  23.537   1.919  0.1334  0.3102  0.1301
    1W        W52286  21.421   5.639   8.190 -0.0432  0.0776  0.0657
    1W        W52287   8.979  25.283   0.632  0.1911  0.0822  0.0937
    1W        W52288  21.209  16.356   1.745 -0.2774  0.2022 -0.0124
    1W        W52289  11.458  12.157   7.433  0.0818 -0.1182  0.0396
    1W        W52290   1.383  15.920   7.831 -0.1627  0.1877 -0.2837
    1W        W52291   6.424   1.503   2.202  0.0830 -0.0614 -0.1888
    1W        W52292   5.385  29.511   1.600  0.2761 -0.1335  0.0835
    1W        W52293  16.359  16.139   0.096  0.0760  0.1603  0.1121
    1W        W52294  10.983  29.518   2.021 -0.1561 -0.2425 -0.0034
    1W        W52295   7.708   3.275   7.697  0.1756  0.1799 -0.1050
    1W        W52296   2.929  18.152   2.126 -0.0175 -0.2248 -0.0189
    1W        W52297   6.515  10.859   8.500  0.1642 -0.1794 -0.1923
    1W        W52298  11.337  21.747   1.289  0.1814  0.1170  0.0361
    1W        W52299   0.110  18.861   6.247  0.0472 -0.1447 -0.0276
    1W        W52300   8.820   7.433   7.687  0.1966  0.0214 -0.1625
    1W        W52301   0.915  18.942   1.819  0.1745 -0.2256 -0.2746
    1W        W52302  24.982  14.105   1.766  0.0845 -0.1499  0.0092
    1W        W52303   9.404   3.305   8.550  0.2507  0.1408  0.3783
    1W        W52304  22.627  16.423   6.474 -0.4341 -0.1094 -0.0758
    1W        W52305   8.367  10.086   1.658  0.0332  0.4424  0.2820
    1W        W52306   5.416  20.866   8.764  0.1550  0.3808 -0.3233
    1W        W52307  24.115   6.014   0.176  0.0385 -0.1074 -0.1320
    1W        W52308  19.925  27.386   2.168 -0.0929 -0.0839 -0.1420
    1W        W52309  25.025  29.645   3.347 -0.0467 -0.1508  0.0296
    1W        W52310  27.315  16.981   7.937  0.4484 -0.0302 -0.3199
    1W        W52311   0.834  26.582   1.201 -0.1292 -0.1619 -0.0838
    1W        W52312  17.201  20.649   2.199  0.2041  0.0601 -0.1690
    1W        W52313   0.194  24.838   1.819 -0.2544 -0.0108 -0.1057
    1W        W52314  23.439  23.547   7.540 -0.0361  0.0434  0.3337
    1W        W52315   2.273  16.718   8.662 -0.0145  0.2142 -0.2078
    1W        W52316  15.298  18.975   8.998  0.1326 -0.0738  0.0202
    1W        W52317   9.595  26.671   8.539  0.0651  0.1783  0.0367
    1W        W52318  13.947  24.711   1.660  0.3083  0.3482 -0.1647
    1W        W52319   0.687   5.437   1.991  0.1637  0.1583  0.0558
    1W        W52320  10.368  28.891   2.077  0.0956  0.0473 -0.3845
    1W        W52321   7.764  28.358   9.355 -0.3399  0.0981 -0.0610
    1W        W52322   8.677  22.776   7.418  0.1684 -0.1136 -0.1378
    1W        W52323  11.244  28.590   2.486 -0.0698  0.0804  0.0517
    1W        W52324  18.254  18.666   8.346  0.2745 -0.1063 -0.3521
    1W        W52325  26.429  29.143   8.192  0.1751 -0.1180 -0.0181
    1W        W52326  26.416   2.204   6.941 -0.0947 -0.4029 -0.0326
    1W        W52327   3.603  27.964   1.704  0.0157  0.1300 -0.1058
    1W        W52328  12.998  18.823   7.217  0.2630  0.2258 -0.0175
    1W        W52329  19.648  20.641   3.034 -0.3443 -0.2123 -0.2220
    1W        W52330   2.384  21.670   2.183  0.1204  0.3022  0.0450
    1W        W52331   8.756   5.481   9.154  0.0059 -0.0213  0.4829
    1W        W52332  23.900  21.284   1.678  0.1404  0.0400 -0.1361
    1W        W52333   9.317  21.968   6.786  0.0330 -0.0377 -0.0087
    1W        W52334   5.218  15.849   8.820 -0.0594  0.0761  0.0308
    1W        W52335   1.280   0.222   8.130  0.0412 -0.3014 -0.0919
    1W        W52336   1.001   7.290   8.695  0.0884 -0.2704 -0.1218
    1W        W52337   9.830  14.279   1.033  0.1039  0.2545  0.0358
    1W        W52338   5.815  17.741   2.621 -0.1822  0.0199  0.2192
    1W        W52339   1.364   7.708   6.685  0.0229  0.1554  0.0795
    1W        W52340   4.743   7.563   1.415  0.1172 -0.1388  0.2920
    1W        W52341   6.499   4.080   7.696  0.1411  0.3196  0.0076
    1W        W52342  12.015   4.730   8.087 -0.1111 -0.2838 -0.1265
    1W        W52343  17.343  24.660   0.848 -0.2748  0.1268 -0.4202
    1W        W52344  29.120  23.105   8.359  0.2064 -0.1140 -0.3327
    1W        W52345  11.333  27.136   0.131 -0.2783  0.0511  0.0009
    1W        W52346  26.666  13.373   8.920 -0.0900 -0.0080  0.0548
    1W        W52347  12.105   6.647   1.184  0.0038 -0.0414  0.1220
    1W        W52348   2.084   1.008   9.361 -0.3982 -0.2250 -0.0037
    1W        W52349   1.416   0.634   1.166 -0.1037 -0.3152  0.2830
    1W        W52350  13.581   1.964   1.491 -0.2687  0.0000  0.0023
    1W        W52351   1.541   1.555   0.517  0.0238 -0.1019  0.1360
    1W        W52352  26.913  10.249   9.303 -0.1147  0.3727 -0.0842
    1W        W52353  16.838  25.097   1.907  0.4257 -0.0545 -0.2116
    1W        W52354   2.347   5.236   0.847  0.1809 -0.2380 -0.2357
    1W        W52355   1.262  15.593   1.680  0.2142 -0.2658 -0.0110
    1W        W52356   3.400  13.149   6.789  0.1048  0.0440 -0.0551
    1W        W52357  27.876  10.530   0.118  0.0997 -0.0839 -0.1994
    1W        W52358  24.551  14.743   0.993 -0.0602  0.0730 -0.0931
    1W        W52359   9.807  19.854   8.298  0.1414  0.0625 -0.1855
    1W        W52360  27.594  18.081   1.092 -0.2961  0.0402  0.0405
    1W        W52361  26.128  28.819   0.655  0.1454 -0.0772 -0.2376
    1W        W52362   7.389  21.917   1.660  0.2420  0.1018 -0.3230
    1W        W52363   2.547  20.178   8.216 -0.2806  0.1835  0.0661
    1W        W52364  17.294  12.080   9.222 -0.2763 -0.1113  0.4771
    1W        W52365  26.014  14.428   1.698  0.0072 -0.1322  0.3408
    1W        W52366  20.701  14.610   8.636  0.3520 -0.1027  0.0930
    1W        W52367  13.634  10.811   1.262 -0.2462 -0.2840 -0.3264
    1W        W52368  12.531  29.408   8.333 -0.2841 -0.1675  0.2977
    1W        W52369  24.509  23.742   8.154 -0.1160  0.1770 -0.1099
    1W        W52370  14.825   9.469   0.109 -0.0814 -0.0155 -0.1184
    1W        W52371  27.058  29.742   7.923 -0.3096 -0.0233 -0.1476
    1W        W52372  14.916  15.051   9.064 -0.3965  0.0548 -0.0755
    1W        W52373   2.072  29.135   8.156 -0.0908 -0.0920 -0.4342
    1W        W52374   2.647  13.871   8.412 -0.0033 -0.0553 -0.0041
    1W        W52375   4.228  10.933   2.268  0.0292  0.4473  0.3073
    1W        W52376  29.201  10.681   1.395  0.3362 -0.0573  0.0629
    1W        W52377  29.409  26.112   7.837  0.0093  0.1612  0.2037
    1W        W52378   8.725  22.017   8.328  0.0774 -0.2796 -0.0910
    1W        W52379   7.648   8.647   6.614  0.0855  0.0673 -0.1042
    1W        W52380  28.568  18.243   7.317 -0.3379  0.0036  0.1376
    1W        W52381  21.594   8.633   6.325 -0.2259  0.0867  0.0716
    1W        W52382  19.632  17.594   1.974 -0.1618 -0.0849 -0.1122
    1W        W52383  29.398  18.712   8.192  0.0382 -0.1606  0.1709
    1W        W52384  24.281   4.976   2.360 -0.0888 -0.3096  0.0119
    1W        W52385  21.894   8.716   2.158  0.1292 -0.1216 -0.1284
    1W        W52386  29.417   0.760   9.424  0.1847  0.0002 -0.2949
    1W        W52387  16.385  19.496   9.044  0.0231  0.0037 -0.0198
    1W        W52388  26.942  11.034   7.519  0.0130 -0.0860  0.0096
    1W        W52389   0.971  27.062   1.084  0.0013  0.1471  0.0133
    1W        W52390   2.579  26.556   1.064 -0.1619 -0.2265  0.0408
    1W        W52391   4.088  22.895   1.483 -0.1137  0.2812  0.3668
    1W        W52392  22.254  11.052   0.372  0.0751  0.2793  0.1460
    1W        W52393  20.888   0.180   0.644 -0.0120  0.1517 -0.0471
    1W        W52394   7.071   3.174   2.440 -0.1908 -0.1845 -0.3440
    1W        W52395  15.224  15.346   7.825  0.0697  0.0713 -0.1928
    1W        W52396  26.150  15.217   0.243  0.0309 -0.1401 -0.0745
    1W        W52397  22.572   5.278   7.596 -0.0548  0.0494 -0.2215
    1W        W52398   3.429   5.310   8.511 -0.0089  0.3077  0.0055
    1W        W52399  14.088  28.834   1.527 -0.0266 -0.1174  0.0297
    1W        W52400  22.106   6.084   3.187 -0.0456 -0.0073  0.1185
    1W        W52401   9.451  29.411   1.916  0.0222 -0.1585  0.0244
    1W        W52402  26.341  17.710   9.079  0.0041 -0.1548 -0.2628
    1W        W52403  20.714   2.553   0.804 -0.0945  0.1091 -0.1532
    1W        W52404  26.975  24.893   8.037 -0.1956  0.1637  0.0299
    1W        W52405   6.045   5.356   7.296  0.2542  0.1383  0.2426
    1W        W52406  28.977   0.306   1.768  0.0809  0.0427 -0.0417
    1W        W52407  10.458   0.006   1.980 -0.1782 -0.1549  0.0038
    1W        W52408  10.622  22.242   0.323  0.1175  0.1598  0.2303
    1W        W52409   5.518   2.499   1.271  0.0270 -0.1690  0.1115
    1W        W52410  14.653   2.543   0.783 -0.0530  0.1289 -0.0213
    1W        W52411  15.131  13.686   6.472 -0.1367 -0.1498  0.0172
    1W        W52412  13.790  11.609   1.987 -0.0641  0.0880  0.1173
    1W        W52413  21.573  11.137   1.628  0.4824 -0.2441  0.2623
    1W        W52414  11.557  13.997   7.374 -0.0283 -0.0545 -0.1247
    1W        W52415  16.523  22.639   7.830 -0.2385  0.0780 -0.0498
    1W        W52416  18.972   1.919   7.259 -0.0483  0.1505  0.1529
    1W        W52417   4.670  25.157   1.583  0.2586  0.3325  0.0692
    1W        W52418  25.917  14.501   6.652 -0.1979  0.0676  0.2199
    1W        W52419  18.386  10.483   0.071 -0.0834  0.1840  0.0403
    1W        W52420  26.485   4.917   1.337  0.1875 -0.0690 -0.2588
    1W        W52421  20.114   3.759   7.824  0.1924 -0.2313 -0.1465
    1W        W52422  25.834   2.659   3.152  0.3090  0.1406 -0.0719
    1W        W52423  29.220  24.522   1.775 -0.0451  0.1024 -0.1022
    1W        W52424   0.042  16.496   1.330  0.0870 -0.0554 -0.1439
    1W        W52425  11.356   7.123   8.125 -0.1437 -0.0287  0.1083
    1W        W52426  27.170  15.055   8.645 -0.0852 -0.0127  0.0108
    1W        W52427   9.673   1.288   8.915 -0.0642 -0.0239  0.0885
    1W        W52428  11.099   4.673   1.455  0.0179  0.2874 -0.0814
    1W        W52429  17.516  26.292   7.871 -0.0329 -0.1609 -0.1304
    1W        W52430  17.679  12.014   8.758  0.1075  0.0688  0.1876
    1W        W52431   6.611  15.717   7.439  0.1145 -0.0445  0.4820
    1W        W52432  26.090  26.515   1.012 -0.1662 -0.2417 -0.0880
    1W        W52433  14.482  16.275   0.447 -0.3078 -0.0467  0.1554
    1W        W52434  16.493  25.478   0.822 -0.0249 -0.1105  0.0431
    1W        W52435   0.830  15.084   7.502  0.0290 -0.2088 -0.0311
    1W        W52436  26.156  25.794   2.379 -0.1318  0.0652  0.0326
    1W        W52437  18.510  12.524   0.376  0.0295  0.0176 -0.1331
    1W        W52438   2.248  28.731   8.379  0.1393  0.2799 -0.2247
    1W        W52439   3.107  17.806   6.460  0.1219 -0.2088  0.1193
    1W        W52440   2.439  26.435   9.457  0.0049 -0.0141  0.3493
    1W        W52441  15.660  25.964   2.040 -0.1635  0.1774  0.1761
    1W        W52442  26.952  24.403   8.659 -0.0867 -0.0820  0.0398
    1W        W52443  15.488   0.188   2.983 -0.1428  0.0474 -0.1482
    1W        W52444  29.820  29.547   7.226 -0.3103 -0.0513 -0.0396
    1W        W52445   3.274  23.650   7.470  0.0206  0.1132 -0.0337
    1W        W52446  27.003  10.278   1.172  0.0771 -0.2906 -0.0372
    1W        W52447   3.893  11.925   7.440 -0.2055  0.2138 -0.0256
    1W        W52448   8.541  13.125   7.323 -0.0146  0.0474 -0.0503
    1W        W52449  19.204   5.560   8.342  0.0351  0.2442  0.1043
    1W        W52450  20.519  14.352   0.777 -0.2354  0.2181  0.4559
    1W        W52451   1.956  22.854   1.231  0.2103 -0.0422  0.3015
    1W        W52452   5.522  17.275   7.730 -0.0251  0.1925  0.2812
    1W        W52453   5.922  28.718   9.066  0.1609  0.0500  0.0994
    1W        W52454  29.704  19.738   8.282 -0.0142  0.1726  0.2467
    1W        W52455   8.642  18.354   7.771  0.1129 -0.1583  0.0948
    1W        W52456   9.758  22.352   0.440  0.2294  0.1851 -0.0185
    1W        W52457   7.193   7.920   2.531 -0.0278 -0.2136 -0.0258
    1W        W52458   9.836  25.049   1.419  0.2699 -0.1368 -0.2851
    1W        W52459   5.811   8.739   2.054 -0.3184 -0.0460 -0.1932
    1W        W52460  22.868  27.391   0.022  0.2508  0.0033 -0.0561
    1W        W52461  15.937  24.983   9.306  0.0760 -0.2225  0.0291
    1W        W52462  12.474  20.807   9.386 -0.0424  0.3295  0.1534
    1W        W52463  25.713  21.419   7.627  0.1793 -0.2307  0.1223
    1W        W52464  20.424  13.290   1.863 -0.0352 -0.0766  0.0093
    1W        W52465  17.047   1.714   8.574 -0.0556  0.0836 -0.3702
    1W        W52466  26.877   3.457   7.825 -0.0182  0.1089  0.0194
    1W        W52467  18.928   4.409   1.683  0.0251  0.2381  0.0851
    1W        W52468  21.578  23.366   1.305  0.0977  0.0212 -0.0849
    1W        W52469  11.809  16.190   6.737  0.1039 -0.1167  0.1624
    1W        W52470   9.229   1.305   9.383  0.1394  0.0577  0.3002
    1W        W52471  25.896   1.165   8.759 -0.0459 -0.3142 -0.0083
    1W        W52472   1.465   9.794   7.323  0.1161  0.2368  0.0119
    1W        W52473  26.863   2.412   2.228 -0.1696  0.0114  0.1346
    1W        W52474  18.813   2.598   1.921 -0.0551 -0.0663  0.2857
    1W        W52475  26.544  18.440   0.278  0.1713 -0.1206  0.2228
    1W        W52476  21.349   3.645   0.600  0.1181  0.1894  0.0774
    1W        W52477   1.948  20.124   0.114  0.1446  0.2090  0.1737
    1W        W52478   0.124  14.313   7.362  0.1156  0.0128 -0.1307
    1W        W52479  27.604   1.825   9.207  0.0440 -0.0583  0.0149
    1W        W52480  14.886  14.473   2.211 -0.1491 -0.1970 -0.1924
    1W        W52481   5.882  14.183   9.198 -0.0401  0.0066 -0.0334
    1W        W52482  22.503   2.828   2.954  0.1749 -0.2664  0.2921
    1W        W52483  28.089  26.277   7.337  0.3364 -0.0231 -0.0431
    1W        W52484  15.542   3.866   8.990 -0.0942 -0.4232  0.0714
    1W        W52485  16.955  29.054   8.048  0.0892  0.0218 -0.0020
    1W        W52486  29.772  28.821   1.395 -0.2255  0.0497 -0.0430
    1W        W52487   8.600  19.933   8.306 -0.0818  0.1299 -0.0106
    1W        W52488  25.733   8.341   1.026 -0.0953  0.0500  0.0586
    1W        W52489  11.655   7.965   7.339  0.0701  0.0234 -0.1829
    1W        W52490  27.019  27.498   7.560  0.0364  0.1355  0.1057
    1W        W52491  24.961  23.825   1.637  0.1272  0.0546 -0.2955
    1W        W52492   7.485  26.893   2.281 -0.0951  0.0309 -0.0179
    1W        W52493  19.759  18.506   2.704  0.3796 -0.0317  0.0656
    1W        W52494   6.529  25.901   1.289  0.1928  0.2754 -0.0259
    1W        W52495  21.778  24.340   0.388 -0.2716 -0.2205 -0.0896
    1W        W52496  20.256  13.686   2.085 -0.2050  0.1531  0.0649
    1W        W52497  17.656  28.306   2.814 -0.1709  0.1559 -0.0679
    1W        W52498   6.137  14.851   7.250  0.1945 -0.0895  0.0731
    1W        W52499   7.832  21.247   8.807 -0.2056  0.0087  0.0902
    1W        W52500  10.491  15.997   7.459  0.0002 -0.0052 -0.1568
    1W        W52501   3.956  25.688   1.844 -0.0543  0.1640 -0.1292
    1W        W52502  19.006   6.725   6.641  0.1767 -0.2671  0.1475
    1W        W52503   8.666  28.010   1.890 -0.2864  0.0058 -0.3556
    1W        W52504  13.994  14.392   1.517  0.0231 -0.2767 -0.1524
    1W        W52505  24.021  22.538   1.157 -0.1696  0.3533  0.0862
    1W        W52506   4.843  11.822   1.040 -0.2190  0.2298  0.0437
    1W        W52507   7.758  24.195   0.345  0.2707  0.1876 -0.1451
    1W        W52508  13.223  20.170   8.867 -0.0824  0.1594 -0.0065
    1W        W52509  26.288  20.951   7.028 -0.0341  0.0432 -0.2894
    1W        W52510  26.003   8.640   7.804 -0.1827  0.0459  0.2355
    1W        W52511   4.578  17.295   8.774  0.1783  0.2651  0.1423
    1W        W52512  28.627  23.448   9.057 -0.1084  0.2644  0.0446
    1W        W52513   7.598   2.528   8.152 -0.1603 -0.4127  0.2987
    1W        W52514  27.585  27.255   9.336 -0.1109  0.0402  0.0499
    1W        W52515  26.514  11.340   8.834  0.1202 -0.1532  0.0090
    1W        W52516  23.158   0.142   2.232 -0.0540  0.4894  0.1017
    1W        W52517  29.698   8.824   8.654  0.1906  0.2945  0.0157
    1W        W52518  14.978  17.075   0.721 -0.1868  0.1132  0.0729
    1W        W52519  16.142  29.061   1.191 -0.0720  0.1328  0.1475
    1W        W52520  20.182  16.201   9.225 -0.1085  0.0132  0.0356
    1W        W52521  12.815  10.272   0.404  0.2081  0.2843  0.1515
    1W        W52522   4.004  22.576   6.736  0.0175 -0.1010  0.2750
    1W        W52523  29.606  26.949   8.359  0.1377 -0.0485  0.2047
    1W        W52524  24.118  11.145   7.756  0.0256  0.1124  0.0819
    1W        W52525   1.795   8.148   0.806  0.0930 -0.1607  0.0774
    1W        W52526  25.568   7.893   1.237 -0.4129  0.1488 -0.1152
    1W        W52527  13.192   2.678   1.583 -0.2814 -0.2299  0.0338
    1W        W52528  22.856   0.981   2.860  0.3714 -0.1862 -0.0302
    1W        W52529   0.353  27.841   7.338  0.1372 -0.3070 -0.1397
    1W        W52530  29.416   0.147   1.550 -0.2949  0.1893 -0.1769
    1W        W52531  24.475  18.990   1.560  0.2385 -0.1640 -0.1574
    1W        W52532  19.586  17.718   8.601  0.1405  0.1175  0.0539
    1W        W52533  21.725  13.453   6.127 -0.2127 -0.1795 -0.0495
    1W        W52534  18.281   7.764   9.457  0.2304 -0.2640 -0.3137
    1W        W52535  11.015   0.170   3.243  0.0769 -0.1279 -0.2674
    1W        W52536  26.481  11.485   6.805  0.0700 -0.2398 -0.1966
    1W        W52537  26.487   0.199   8.290 -0.3280 -0.1916 -0.0686
    1W        W52538   4.000   8.869   0.045 -0.2397  0.1102  0.2998
    1W        W52539   1.207  15.003   7.874 -0.0491 -0.1446 -0.0897
    1W        W52540  23.214   9.968   1.416  0.1516  0.1286 -0.0693
    1W        W52541  23.813  27.723   0.144 -0.0546 -0.1595  0.1022
    1W        W52542   7.366  19.439   8.405 -0.0881 -0.0700  0.2817
    1W        W52543   0.175  23.587   8.041  0.0378  0.2344  0.0506
    1W        W52544  23.776  24.427   2.436  0.0091  0.0130  0.0360
    1W        W52545   4.283  15.559   2.113  0.2482 -0.1713  0.2449
    1W        W52546  12.268  25.239   8.623  0.0840  0.1608  0.0038
    1W        W52547  26.663  20.616   0.094 -0.0495 -0.0115  0.2147
    1W        W52548  27.280  15.035   6.508  0.2682  0.1868  0.2827
    1W        W52549  11.116  25.104   1.459  0.0142 -0.0933 -0.2450
    1W        W52550  18.918  25.385   8.646  0.1607 -0.1315  0.1321
    1W        W52551  19.588  29.715   7.597  0.0300 -0.0647  0.0725
    1W        W52552   2.183  25.854   9.339  0.0381  0.2892  0.0736
    1W        W52553  24.234  19.948   2.568  0.1641 -0.2426 -0.0133
    1W        W52554   5.658   8.926   1.576 -0.3825 -0.4080 -0.1862
    1W        W52555   0.543  19.720   0.784 -0.2554 -0.0778 -0.3902
    1W        W52556  25.023  29.213   3.082 -0.0812 -0.0172  0.3805
    1W        W52557   0.464  22.824   6.734  0.2632 -0.0787  0.1575
    1W        W52558  24.768   9.187   8.000 -0.0462  0.0019 -0.1602
    1W        W52559  15.640   2.095   8.969  0.0981 -0.0061  0.1581
    1W        W52560  22.224   9.443   2.882  0.0454 -0.0593  0.1499
    1W        W52561  11.180  20.479   1.507  0.0244  0.0965  0.1099
    1W        W52562   0.319  15.014   0.328 -0.1420 -0.4145  0.3096
    1W        W52563   7.431   0.853   7.525  0.3199  0.2656  0.1360
    1W        W52564  16.711  24.673   2.139  0.1084 -0.1027  0.1200
    1W        W52565  11.705  16.158   0.249  0.1908  0.1375  0.1066
    1W        W52566   3.351  13.236   2.446 -0.0042 -0.3619  0.2659
    1W        W52567   2.465  21.454   1.144 -0.0523 -0.1634 -0.0608
    1W        W52568  17.429   0.248   1.005 -0.3092  0.3100  0.3143
    1W        W52569  16.463  26.893   0.180  0.0168  0.0317 -0.0118
    1W        W52570  26.178  28.090   2.108  0.1655  0.0349 -0.2311
    1W        W52571  10.753  24.507   9.100 -0.1549  0.0059 -0.2946
    1W        W52572  19.717   3.853   6.817 -0.0051 -0.0959 -0.2246
    1W        W52573   8.197  15.011   2.041 -0.0126 -0.0597 -0.1151
    1W        W52574   5.700  21.093   5.963  0.2927  0.0045  0.0176
    1W        W52575  15.244   0.793   3.014 -0.0489  0.1221  0.2621
    1W        W52576  18.254  16.132   7.967 -0.1041  0.1794  0.0453
    1W        W52577  22.960   4.143   2.815  0.0490  0.0182 -0.0850
    1W        W52578   0.560  24.531   6.132  0.0313  0.0651  0.3719
    1W        W52579  25.309  27.846   0.590  0.0462  0.0656 -0.1652
    1W        W52580  28.499  29.769   1.755 -0.1279 -0.0189 -0.0129
    1W        W52581   2.870  19.428   8.483 -0.2384  0.2550 -0.1094
    1W        W52582  26.898  14.663   7.530  0.0518 -0.3582 -0.2144
    1W        W52583  20.683  22.374   1.264  0.1642  0.3160  0.4062
    1W        W52584  16.186   8.485   2.187  0.2337 -0.0368  0.3886
    1W        W52585   7.052  20.575   6.816  0.0037  0.1931 -0.1084
    1W        W52586  14.204  10.717   8.819  0.0609 -0.0465 -0.0503
    1W        W52587   0.122  20.699   8.662  0.0073  0.1235  0.1085
    1W        W52588   9.963  27.239   1.721  0.1637  0.1677  0.1926
    1W        W52589  19.935   0.342   7.304  0.0554  0.1942  0.3522
    1W        W52590  24.740  18.051   7.410  0.2745  0.0823  0.4963
    1W        W52591  27.983  25.451   2.103  0.0432 -0.1254 -0.1361
    1W        W52592  28.759  15.009   7.164 -0.0383 -0.0547  0.0583
    1W        W52593  21.713  11.201   6.414 -0.0826 -0.0413  0.0838
    1W        W52594  14.748   7.861   3.122  0.3161  0.1514 -0.1312
    1W        W52595  24.951  10.483   9.259 -0.3706 -0.1293 -0.1377
    1W        W52596  15.886   2.158   2.478  0.1802 -0.2376  0.2624
    1W        W52597  17.985   6.131   8.506 -0.2819 -0.2005 -0.0028
    1W        W52598   8.300  18.244   6.540 -0.1617  0.2174  0.2294
    1W        W52599  18.281   7.890   1.668  0.0032 -0.0847 -0.0977
    1W        W52600   9.233  14.847   9.037  0.2056 -0.3677  0.0125
    1W        W52601  13.626  24.402   0.525 -0.0351 -0.1035 -0.1370
    1W        W52602  28.483   9.986   8.886 -0.2149  0.1661 -0.3615
    1W        W52603  12.276  17.785   8.278  0.1690 -0.0708  0.1156
    1W        W52604   4.027   6.453   0.922 -0.1991 -0.1968  0.2417
    1W        W52605  15.021  15.792   7.663 -0.1524  0.0353 -0.1571
    1W        W52606   9.801   7.303   3.792  0.4986  0.0330 -0.0473
    1W        W52607   2.437   6.412   6.353 -0.3567 -0.0595  0.1462
    1W        W52608  13.055  11.326   1.520  0.0282  0.1727  0.0666
    1W        W52609  20.693  26.050   8.783  0.2455 -0.0907  0.4303
    1W        W52610  13.444  24.475   2.406 -0.1892  0.1587  0.0154
    1W        W52611   5.484  13.642   7.263 -0.2127 -0.0208 -0.2493
    1W        W52612  21.193  20.736   9.225  0.0581  0.1928 -0.0173
    1W        W52613  18.281  18.158   1.895 -0.0412  0.0127 -0.0011
    1W        W52614  10.842   3.833   0.187 -0.0124 -0.1389  0.1263
    1W        W52615  21.907   9.722   7.077 -0.0778  0.1455  0.0568
    1W        W52616   6.773  15.247   6.085  0.1475  0.0204 -0.1718
    1W        W52617  16.586   4.728   2.328 -0.0195 -0.0680 -0.2328
    1W        W52618   9.271  29.603   2.485  0.1136  0.1759  0.1250
    1W        W52619  23.187  23.375   8.923 -0.0389 -0.1909 -0.0712
    1W        W52620   6.677  17.623   6.899  0.0535 -0.1748 -0.0058
    1W        W52621   0.119  25.267   0.894 -0.1332  0.2958  0.0863
    1W        W52622  11.253   1.081   2.263  0.0120 -0.2443  0.1018
    1W        W52623  15.587  28.399   2.740  0.4221  0.2334 -0.0916
    1W        W52624  26.998  17.482   7.517 -0.1009  0.0214 -0.0364
    1W        W52625  29.429   5.849   0.015  0.0400  0.0483 -0.0190
    1W        W52626  16.804  24.754   8.959  0.1586  0.1101 -0.1534
    1W        W52627  11.672   4.430   8.160  0.1530  0.3481 -0.1652
    1W        W52628  25.148   3.856   3.232 -0.0067 -0.4079 -0.2263
    1W        W52629  21.823  29.165   0.941 -0.2210 -0.1423 -0.1804
    1W        W52630  16.730  18.325   0.088 -0.0066  0.0182 -0.1005
    1W        W52631   2.648  26.922   0.101 -0.0428  0.1027  0.2291
    1W        W52632  26.669  26.233   5.742  0.2413 -0.2604  0.0855
    1W        W52633  26.775  11.678   6.404  0.0538  0.1358  0.0333
    1W        W52634   4.411  12.551   7.899 -0.0490 -0.0609 -0.0463
    1W        W52635  26.668  26.865   1.720 -0.0718  0.0226  0.0434
    1W        W52636  17.064  11.818   7.869 -0.0610  0.0041  0.0425
    1W        W52637  29.726  26.124   0.518 -0.4318 -0.1004 -0.0505
    1W        W52638  12.421  24.207   1.139  0.1658 -0.0716  0.1551
    1W        W52639  28.428  25.852   6.451  0.0928 -0.0300 -0.0998
    1W        W52640  24.634   1.458   1.712  0.0117  0.0879 -0.1210
    1W        W52641   2.267  13.709   8.671 -0.1436  0.2956  0.3687
    1W        W52642   1.534  13.482   0.373  0.2186 -0.1804 -0.0996
    1W        W52643   9.705   2.116   1.696 -0.4998 -0.1304  0.0631
    1W        W52644  11.818  23.601   8.595 -0.3130 -0.1473  0.1012
    1W        W52645  27.598  15.981   0.286 -0.0294 -0.2092 -0.0133
    1W        W52646  23.389  11.200   8.609 -0.1137  0.0650  0.0748
    1W        W52647  26.477   1.515   6.284  0.1110 -0.0319 -0.2183
    1W        W52648  16.381  11.760   1.136 -0.0648  0.3188 -0.0238
    1W        W52649   4.558  29.602   7.733 -0.1040  0.0290  0.1966
    1W        W52650  24.011  26.199   7.822  0.1663  0.0741  0.0365
    1W        W52651   9.256  24.798   6.958  0.1964  0.0069  0.2151
    1W        W52652   6.565  29.344   2.247  0.3298  0.1578  0.2034
    1W        W52653  20.212   8.858   8.897 -0.0559 -0.0411 -0.4427
    1W        W52654   8.141   4.806   1.867 -0.1286  0.0182 -0.1143
    1W        W52655  26.282   2.355   7.344 -0.1850 -0.0809 -0.0931
    1W        W52656   4.138  16.625   2.292  0.1186 -0.0897 -0.3188
    1W        W52657  20.430   8.371   6.374  0.2950  0.0083 -0.1721
    1W        W52658   1.087  15.332   0.289  0.2976  0.0119 -0.1389
    1W        W52659   5.038   0.758   3.894  0.3348 -0.2869 -0.0118
    1W        W52660  17.809  12.616   6.835  0.3324  0.1577  0.1402
    1W        W52661  22.143   5.522   7.833 -0.0536 -0.0163  0.1910
    1W        W52662  15.063  19.394   1.028  0.0334 -0.0190  0.0809
    1W        W52663  20.169   1.530   2.386 -0.4134 -0.1475  0.1312
    1W        W52664   9.229  25.702   2.992  0.2674  0.1019 -0.0992
    1W        W52665  29.066  24.499   6.662  0.0435 -0.1876  0.0719
    1W        W52666  14.842   7.260   9.418  0.0066  0.0560  0.0612
    1W        W52667   2.100  14.467   0.752 -0.0674  0.0217 -0.2756
    1W        W52668  25.510   4.728   8.221  0.2169 -0.4271  0.1951
    1W        W52669   2.221  16.430   7.680 -0.0247  0.1577  0.0990
    1W        W52670  21.582  14.301   0.947  0.0928  0.0289 -0.0735
    1W        W52671   4.904  12.686   8.045  0.0150 -0.1517  0.2382
    1W        W52672  25.135  11.750   0.977  0.0824  0.0293 -0.3463
    1W        W52673  14.310  28.392   7.945 -0.1095  0.1568  0.2622
    1W        W52674  20.322   8.242   8.461  0.2676 -0.2105 -0.0426
    1W        W52675   9.449  17.649   0.864 -0.2702 -0.0838 -0.0141
    1W        W52676   4.048  14.316   7.247 -0.3529  0.3092  0.0933
    1W        W52677  19.872  12.969   0.025  0.0940 -0.0964 -0.2288
    1W        W52678  20.544  27.564   3.248 -0.1044  0.1213  0.2502
    1W        W52679  24.408  23.561   7.134 -0.0927  0.1606  0.0903
    1W        W52680   5.615  17.714   7.522  0.1402  0.0230  0.3663
    1W        W52681  16.000  15.722   7.828 -0.0671  0.0701 -0.3763
    1W        W52682  21.145  20.487   2.219  0.1024  0.0633  0.0327
    1W        W52683  12.518   9.364   7.315 -0.0206  0.0585 -0.0248
    1W        W52684   3.625  25.349   6.616 -0.1922  0.0087 -0.0280
    1W        W52685   8.247  10.490   0.586 -0.0061 -0.0257 -0.3799
    1W        W52686   0.265  14.505   7.800  0.1425 -0.0724  0.3792
    1W        W52687  14.065  28.491   9.405 -0.1312  0.1779  0.0267
    1W        W52688  20.558  13.895   0.961  0.0209 -0.0547 -0.4086
    1W        W52689  15.898   8.730   9.000  0.5401 -0.0948  0.2061
    1W        W52690   7.361  24.013   0.565 -0.1612  0.0316  0.1477
    1W        W52691  29.432   5.824   2.882 -0.2023 -0.1779  0.0547
    1W        W52692  26.746   9.569   9.325 -0.3079 -0.1766  0.1070
    1W        W52693  28.802  15.272   2.436  0.1434  0.1763  0.0355
    1W        W52694   2.467   4.119   6.924 -0.2701  0.0329  0.0657
    1W        W52695  13.100   4.012   6.801 -0.1618 -0.3531 -0.1089
    1W        W52696  19.195  14.981   1.160 -0.0779 -0.2166  0.0557
    1W        W52697   2.919  27.291   7.594  0.0766 -0.1720 -0.1034
    1W        W52698  26.782  20.640   1.254  0.2875 -0.0024 -0.0412
    1W        W52699  13.366  14.468   1.561  0.2366  0.2395 -0.1284
    1W        W52700  24.277  25.631   2.148  0.2078  0.1990 -0.0454
    1W        W52701  27.423   9.118   1.963  0.3117  0.0531 -0.2288
    1W        W52702  25.668  16.233   9.350 -0.3342  0.0479  0.1714
    1W        W52703  10.103  20.656   7.946 -0.0218 -0.0357 -0.0846
    1W        W52704   2.681  25.866   9.271  0.1050 -0.1556 -0.1228
    1W        W52705  24.811  15.937   0.249 -0.3902 -0.0635 -0.0458
    1W        W52706   6.944  17.416   7.324  0.1700  0.1239  0.0545
    1W        W52707  29.237   6.762   1.604 -0.2673 -0.2997 -0.3750
    1W        W52708  24.692  23.872   1.122 -0.2199  0.0746 -0.3061
    1W        W52709  28.542  25.899   7.292  0.0725  0.1701  0.1036
    1W        W52710   7.458   9.035   0.988  0.2099 -0.1311 -0.2086
    1W        W52711  27.530   5.832   1.052 -0.1245  0.0512  0.2297
    1W        W52712  11.241  25.488   0.166 -0.1586  0.0268 -0.0156
    1W        W52713  18.842  23.844   7.015 -0.2480  0.0170  0.1079
    1W        W52714  12.799   3.326   0.801 -0.3335  0.1040  0.2176
    1W        W52715  14.746  23.971   0.485 -0.0558  0.0195  0.2121
    1W        W52716  29.336  23.488   7.556 -0.0851  0.1814  0.0495
    1W        W52717   2.438   6.312   7.745  0.3008  0.2324  0.1637
    1W        W52718   3.413   4.053   6.926 -0.0710  0.2877 -0.1181
    1W        W52719   8.444   2.284   8.340 -0.0945 -0.0306 -0.2281
    1W        W52720  20.216  26.353   8.415  0.2266  0.2491  0.2505
    1W        W52721  14.988  10.751   8.255 -0.0151  0.0122  0.1042
    1W        W52722   7.729  13.620   2.522 -0.1300 -0.0146  0.1764
    1W        W52723  18.123   1.541   8.433  0.0525  0.0794 -0.2010
    1W        W52724  13.292   9.372   7.856  0.0341  0.0207 -0.0295
    1W        W52725  22.362  10.251   0.103 -0.0034  0.1551  0.0328
    1W        W52726  25.269   5.912   7.732 -0.1089 -0.1041 -0.0078
    1W        W52727   5.579  29.572   7.023  0.1532 -0.2643  0.0211
    1W        W52728  29.551  18.374   9.022 -0.1390  0.1150  0.2116
    1W        W52729  19.438   2.456   2.811 -0.2255  0.0424 -0.0756
    1W        W52730   0.690  24.152   8.208  0.2350  0.0372  0.0071
    1W        W52731  27.750  27.531   7.294 -0.0404 -0.3880 -0.1978
    1W        W52732  29.017  15.491   0.606  0.0659  0.1726  0.2054
    1W        W52733  26.169  21.844   8.256 -0.0974  0.2639 -0.1522
    1W        W52734   6.517  29.053   1.072 -0.1306 -0.2105  0.0549
    1W        W52735  20.503  13.362   8.684 -0.0586 -0.1872  0.1656
    1W        W52736   6.029   7.823   3.533 -0.0819 -0.1859 -0.0262
    1W        W52737  26.945  18.111   0.334 -0.2344 -0.0175 -0.0323
    1W        W52738   4.412   4.832   2.703  0.0636 -0.3716  0.1157
    1W        W52739   0.799  28.589   2.696  0.0981  0.4840  0.1704
    1W        W52740  12.354  25.966   7.150  0.1497 -0.1987 -0.0809
    1W        W52741   1.862  29.428   7.344 -0.3104 -0.2671  0.0952
    1W        W52742  28.009  19.547   0.558  0.1743  0.1058 -0.0309
    1W        W52743  16.318  20.069   1.339  0.3780 -0.1828 -0.1812
    1W        W52744   5.287  15.037   9.191 -0.0157  0.2545 -0.1452
    1W        W52745   2.212   0.746   0.330 -0.0725  0.0071  0.2222
    1W        W52746   3.253  18.302   1.287 -0.3063 -0.1881  0.1457
    1W        W52747  12.786  26.424   6.714 -0.0140 -0.0748 -0.0971
    1W        W52748   6.567  26.514   7.360  0.3588  0.0762  0.0385
    1W        W52749  25.477  20.703   0.082  0.0086 -0.1883 -0.1374
    1W        W52750   3.313   2.674   3.450 -0.5054 -0.1377 -0.1211
    1W        W52751   4.739  10.788   7.431  0.2119  0.0836 -0.4181
    1W        W52752  18.968  14.748   2.127 -0.0853  0.0811 -0.2504
    1W        W52753  26.164  10.104   6.165 -0.0611 -0.0224  0.1666
    1W        W52754  21.726  15.532   1.675 -0.2605  0.1103  0.1946
    1W        W52755  26.960  23.295   0.922 -0.1913 -0.3109  0.1977
    1W        W52756  10.149  21.610   8.487  0.0671  0.2793 -0.0757
    1W        W52757  20.932   2.049   0.006  0.0194 -0.0767  0.1811
    1W        W52758  29.077  13.543   6.965 -0.0331  0.2586 -0.1558
    1W        W52759  18.065  26.871   1.756 -0.1606  0.1476  0.2753
    1W        W52760  18.698  21.147   9.242  0.1079 -0.2459 -0.1189
    1W        W52761  19.360  24.117   1.896 -0.2517  0.4501 -0.0705
    1W        W52762   6.339   8.925   8.885  0.0907  0.1106  0.1132
    1W        W52763   7.774   9.663   0.211 -0.0464 -0.0371 -0.1252
    1W        W52764  22.376  26.058   8.154  0.4699  0.1216  0.1983
    1W        W52765  24.858  14.061   6.620  0.0038  0.2139 -0.1301
    1W        W52766   0.814   3.782   1.144  0.0978 -0.0865  0.2994
    1W        W52767   8.419  24.710   6.972  0.0744 -0.2341  0.3322
    1W        W52768  24.182   5.770   0.570  0.0045 -0.0315  0.2431
    1W        W52769  17.977  12.892   7.756  0.1492  0.2053  0.1257
    1W        W52770  16.288   8.485   0.263 -0.2186  0.1833  0.2823
    1W        W52771  11.130  10.820   0.346 -0.2935 -0.0590  0.0906
    1W        W52772   7.404   0.560   3.223  0.0242 -0.0539 -0.3667
    1W        W52773  22.331  27.654   1.254  0.0009 -0.5028  0.0668
    1W        W52774   4.247  26.818   3.256 -0.2365 -0.0144 -0.1646
    1W        W52775  11.981  19.330   6.682 -0.1266 -0.0524 -0.0811
    1W        W52776  28.259  17.028   7.281  0.3126 -0.1980 -0.0573
    1W        W52777  23.766  26.980   7.879  0.0920  0.0793 -0.0902
    1W        W52778   8.920   9.398   8.480  0.1254 -0.1382  0.0001
    1W        W52779  10.844   8.391   8.288  0.0884  0.0479  0.0638
    1W        W52780  12.213  22.010   6.693 -0.0257 -0.3892  0.0072
    1W        W52781  29.275  23.030   8.858 -0.1299 -0.0484  0.0638
    1W        W52782   2.235   6.275   8.736  0.0496  0.0568 -0.1202
    1W        W52783  23.039  20.239   8.179  0.0396 -0.1387  0.0344
    1W        W52784   4.087   4.655   1.020  0.0832 -0.0948 -0.0530
    1W        W52785   2.984  13.871   0.308 -0.0841 -0.1907  0.0543
    1W        W52786   1.383  25.011   8.716  0.4676  0.1643 -0.0916
    1W        W52787   7.932  10.054   3.150 -0.1726  0.0085 -0.2375
    1W        W52788   6.763  22.231   8.237 -0.0273 -0.4229 -0.4091
    1W        W52789   2.632  14.304   0.524 -0.0814  0.0515 -0.3210
    1W        W52790  24.775  26.644   6.940  0.2667  0.0183 -0.4324
    1W        W52791  18.929   5.362   0.198 -0.1803 -0.2426  0.0111
    1W        W52792  11.808  25.216   0.051  0.1310  0.2397 -0.1507
    1W        W52793  12.804   9.207   0.524  0.0601 -0.0302  0.2109
    1W        W52794  28.160  14.604   7.514  0.3294  0.0438 -0.0423
    1W        W52795  11.391   2.836   8.359 -0.1038  0.0821 -0.1030
    1W        W52796  18.831   1.290   9.123 -0.1111  0.1751  0.2840
    1W        W52797   8.267  25.894   6.840  0.2742  0.1981 -0.0401
    1W        W52798  24.635   1.897   6.991 -0.0664  0.0685 -0.1131
    1W        W52799  17.136   6.304   6.431  0.0781 -0.1913 -0.2420
    1W        W52800  29.679  25.014   8.040  0.1929  0.2559  0.3285
    1W        W52801  10.851   1.619   8.615 -0.3767 -0.0499 -0.2073
    1W        W52802  21.643  20.097   2.053 -0.1376 -0.1610  0.1164
    1W        W52803  19.602  13.943   8.079 -0.0921  0.2934  0.0257
    1W        W52804  21.974  15.953   7.184  0.1029  0.1255  0.0900
    1W        W52805  24.062  29.199   7.472 -0.3319  0.0179 -0.4603
    1W        W52806  16.303  21.909   7.631  0.2294  0.0646 -0.0080
    1W        W52807  27.401  14.355   8.911  0.3021 -0.0877 -0.0431
    1W        W52808  13.882   6.259   1.756 -0.2773 -0.0931  0.1182
    1W        W52809  27.971  23.737   0.169 -0.1847  0.3054 -0.2760
    1W        W52810  17.016  12.902   7.672  0.1012 -0.1214 -0.0070
    1W        W52811  19.740  28.171   2.186  0.0455 -0.1107 -0.3108
    1W        W52812   3.038   3.823   9.133  0.4031  0.0091 -0.2883
    1W        W52813  28.770   1.556   0.249 -0.1436 -0.1376 -0.0582
    1W        W52814  13.747  11.673   9.106 -0.1175 -0.2099 -0.2428
    1W        W52815  29.823  19.196   8.050 -0.3105 -0.1386 -0.4398
    1W        W52816   9.769   0.486   0.314  0.0246  0.2217 -0.2742
    1W        W52817  18.861  12.200   0.118 -0.0744 -0.0800  0.0798
    1W        W52818  24.149   2.065   1.438 -0.0159  0.4405 -0.1235
    1W        W52819  25.490  15.576   7.319  0.1036 -0.3712 -0.0272
    1W        W52820  28.503  11.261   7.163  0.0987 -0.0438 -0.1990
    1W        W52821  25.928  18.121   1.129 -0.1815 -0.2613  0.1961
    1W        W52822   6.982  28.892   1.161  0.1497 -0.0916 -0.0659
    1W        W52823  18.170   9.142   7.752  0.0721 -0.1289  0.1426
    1W        W52824   4.223   2.224   6.715 -0.1363  0.1037 -0.2120
    1W        W52825  13.712   6.328   8.134 -0.2309  0.2790 -0.0235
    1W        W52826  22.012  24.981   2.584 -0.1610  0.3022  0.1251
    1W        W52827  15.116   0.446   2.607  0.0947  0.0989 -0.0015
    1W        W52828  17.020   6.835   7.939  0.0580 -0.0019 -0.1523
    1W        W52829   4.239   8.202   8.775 -0.2884 -0.0009 -0.1390
    1W        W52830  26.194  22.840   6.037  0.0541  0.1450 -0.0037
    1W        W52831   4.015  18.111   7.291  0.1745  0.0633  0.0013
    1W        W52832  21.102   1.772   2.045  0.3321 -0.1694  0.0380
    1W        W52833  12.377  27.320   0.712 -0.0603 -0.0885 -0.2476
    1W        W52834   9.719   3.706   7.012 -0.0952 -0.3997 -0.1511
    1W        W52835  16.670  19.513   7.659  0.0958  0.2622 -0.1437
    1W        W52836  28.650   6.950   2.868  0.0056  0.1605  0.1664
    1W        W52837  15.808  26.092   1.527  0.1618  0.0244  0.3277
    1W        W52838   1.634  22.208   0.534 -0.1822  0.1682 -0.0568
    1W        W52839  28.071  12.332   1.090  0.3515  0.0786  0.2292
    1W        W52840  14.716  19.536   9.266 -0.0943 -0.0198  0.3111
    1W        W52841  16.147   3.152   7.194  0.1349 -0.0374  0.0897
    1W        W52842   9.139   4.088   9.106 -0.0898 -0.0145 -0.0879
    1W        W52843   8.412  29.246   0.797  0.3599 -0.0167  0.3900
    1W        W52844   2.145  28.073   7.749 -0.1339 -0.1056 -0.0854
    1W        W52845  25.238  15.309   7.712  0.1102 -0.1970 -0.0125
    1W        W52846  26.694   9.653   8.349  0.1140  0.0663 -0.3145
    1W        W52847   9.864  13.892   0.730  0.0622  0.0110  0.1544
    1W        W52848  28.248   5.924   8.123  0.0831  0.0948 -0.1620
    1W        W52849   0.906  15.642   1.278  0.2131  0.1546 -0.1840
    1W        W52850   2.460   0.660   3.321 -0.1714 -0.1172 -0.1757
    1W        W52851  11.592   0.646   3.064  0.0515 -0.0356  0.0224
    1W        W52852  24.903   0.295   9.274 -0.1782  0.2382 -0.0003
    1W        W52853  23.921  13.663   0.019 -0.0551  0.1132  0.2204
    1W        W52854  10.944  17.804   7.135  0.1560  0.0863  0.0397
    1W        W52855  23.437  10.372   1.135 -0.0084  0.0369 -0.1181
    1W        W52856  27.821   3.423   7.705  0.2911  0.1729 -0.1549
    1W        W52857   4.553  16.823   1.480  0.1797 -0.0560  0.1725
    1W        W52858  11.556  24.297   0.319  0.1604 -0.0265 -0.2353
    1W        W52859   1.785  19.892   1.505 -0.0721  0.0378  0.0870
    1W        W52860  14.076  23.454   7.632 -0.1099  0.0280  0.0376
    1W        W52861  12.801  18.555   9.253 -0.0575 -0.0728 -0.1358
    1W        W52862   7.961  20.133   1.226  0.2317 -0.2209  0.0071
    1W        W52863  24.794  26.804   7.972 -0.3328 -0.2127 -0.0018
    1W        W52864  18.935  15.470   8.837  0.1045  0.2086  0.2025
    1W        W52865   5.705  15.570   1.633  0.1813  0.3312 -0.1156
    1W        W52866   6.915   8.652   2.079  0.1870 -0.0222 -0.3019
    1W        W52867  11.226   6.482   2.193 -0.0505  0.0378 -0.0997
    1W        W52868  13.585  22.755   1.624 -0.1460 -0.0290  0.4744
    1W        W52869  17.881  18.884   8.937  0.0386 -0.0138 -0.0767
    1W        W52870   7.399   8.512   7.025  0.2271 -0.0314  0.1354
    1W        W52871  12.171  19.983   0.683  0.3605  0.1103  0.2396
    1W        W52872  13.134  25.109   0.729 -0.0124  0.1612  0.0388
    1W        W52873  16.643   9.846   8.234 -0.0781 -0.2112 -0.1548
    1W        W52874  17.887   2.715   2.915  0.1568 -0.2126 -0.2628
    1W        W52875  12.151   6.819   8.574  0.3050 -0.1570  0.0758
    1W        W52876  27.291  16.386   6.834 -0.0378  0.0438  0.0566
    1W        W52877  10.231   8.141   1.632 -0.0942  0.5633  0.0298
    1W        W52878  28.325  26.347   8.552 -0.0825  0.2614 -0.0714
    1W        W52879  21.040  26.807   3.453 -0.0335  0.1493  0.0160
    1W        W52880  21.690  29.558   1.850 -0.2311 -0.1639  0.0185
    1W        W52881  26.046  23.225   7.641  0.0880 -0.1573  0.2476
    1W        W52882  20.550  22.998   7.935  0.0485 -0.2857  0.3107
    1W        W52883   0.283  11.396   0.095  0.2704 -0.0733 -0.1132
    1W        W52884  23.223   6.681   7.249  0.0360  0.4172 -0.1479
    1W        W52885   5.749  24.231   9.404  0.0889 -0.0795  0.1902
    1W        W52886   8.077   6.799   0.713  0.1575 -0.0520 -0.0876
    1W        W52887   7.772   8.002   8.250 -0.2750 -0.1039 -0.0930
    1W        W52888   5.449  17.354   8.280  0.0676  0.2449 -0.3010
    1W        W52889   9.027   8.345   9.149 -0.2173  0.1385 -0.1543
    1W        W52890   8.191  17.818   1.621 -0.0998 -0.1548 -0.0158
    1W        W52891  21.837  26.752   1.175  0.0965  0.0023 -0.1618
    1W        W52892  16.719   3.304   7.049 -0.2469  0.1723 -0.2516
    1W        W52893  11.383  29.273   0.370  0.4574 -0.5013 -0.1880
    1W        W52894   1.274  29.576   8.301  0.0005 -0.1342  0.1929
    1W        W52895  10.955   2.979   8.637 -0.1004  0.0736 -0.2077
    1W        W52896  13.311   3.375   1.957  0.0219 -0.1056  0.0393
    1W        W52897  20.157   1.609   9.236  0.0032  0.1927  0.1367
    1W        W52898  25.736  25.879   6.786 -0.0199  0.0449 -0.1661
    1W        W52899  23.097   1.220   0.605 -0.0021 -0.2914 -0.2422
    1W        W52900   8.098   1.440   9.127  0.2498  0.2908 -0.0712
    1W        W52901   3.316   4.825   8.534  0.3775  0.2357 -0.0606
    1W        W52902  25.562  20.398   7.734 -0.0608 -0.0670  0.1352
    1W        W52903  10.211   2.803   8.491  0.1460 -0.2195 -0.1517
    1W        W52904  20.461  27.174   8.508  0.0493  0.0563  0.3049
    1W        W52905  25.706  22.147   8.388 -0.0208 -0.0628  0.1449
    1W        W52906  11.267  24.561   8.471  0.0669 -0.1445 -0.0405
    1W        W52907  19.542  20.808   7.364 -0.0382 -0.3101  0.0338
    1W        W52908  24.245  11.854   8.457  0.0234 -0.0695  0.1382
    1W        W52909  29.114   1.354   9.077  0.1296 -0.1875 -0.2611
    1W        W52910   3.410   1.577   3.161  0.2989 -0.0337 -0.1204
    1W        W52911  21.870   4.849   2.802 -0.1194 -0.2470  0.0790
    1W        W52912  21.688  22.404   7.745  0.1050  0.1103 -0.0262
    1W        W52913  14.815  29.104   2.073  0.1188 -0.1860 -0.0151
    1W        W52914   2.364  23.710   7.674 -0.1286 -0.1022 -0.0104
    1W        W52915   3.696   9.771   1.942  0.2231  0.3475 -0.2405
    1W        W52916   2.926  20.480   8.369  0.0703 -0.0396 -0.2680
    1W        W52917  10.083  26.565   2.135 -0.1295 -0.2853 -0.1442
    1W        W52918   5.337  22.764   8.971  0.0560 -0.0154 -0.1220
    1W        W52919   5.636   6.167   7.220 -0.3947 -0.1421 -0.1219
    1W        W52920   8.581  13.520   2.128 -0.0705 -0.0646  0.3417
    1W        W52921   3.241   5.867   9.266  0.1796  0.2662 -0.1934
    1W        W52922  15.841   7.827   8.363 -0.1324  0.1069 -0.0187
    1W        W52923   4.499   2.466   2.513 -0.1886 -0.1968 -0.0699
    1W        W52924  15.359   3.451   8.817 -0.0016 -0.0155 -0.3472
    1W        W52925   5.764   7.147   7.538 -0.3439  0.2045 -0.1807
    1W        W52926  29.363   1.762   7.571  0.0590 -0.0808  0.1795
    1W        W52927  16.382  27.459   0.763  0.0952 -0.1027 -0.0700
    1W        W52928   1.674  20.911   8.564  0.0309  0.4000 -0.1911
    1W        W52929   6.657  27.435   7.608 -0.1423 -0.2698 -0.0382
    1W        W52930  26.087   9.656   1.877  0.1807  0.1920 -0.1039
    1W        W52931   8.451   0.031   1.929  0.1642  0.3593 -0.0249
    1W        W52932  19.657  29.530   2.162 -0.4016  0.0432 -0.0037
    1W        W52933  19.276  10.809   0.405 -0.1375 -0.2600  0.1190
    1W        W52934  12.020   1.688   9.042  0.0660 -0.1171  0.0609
    1W        W52935  15.550  27.390   2.545  0.1306 -0.0106  0.2086
    1W        W52936  24.568  24.124   9.444 -0.1834 -0.2458  0.1335
    1W        W52937   6.432  28.794   8.110  0.1164  0.0234 -0.2167
    1W        W52938  22.181   2.184   0.111 -0.5400  0.2362  0.3207
    1W        W52939   8.445  16.047   2.311  0.1121 -0.0726  0.2319
    1W        W52940   5.055  24.599   6.784 -0.2247  0.2381 -0.0892
    1W        W52941   8.826  19.092   6.918  0.0006  0.3149 -0.0095
    1W        W52942  23.089  17.281   7.772  0.0333  0.2938  0.0395
    1W        W52943  11.531  21.088   6.131 -0.3941  0.1516  0.1606
    1W        W52944   5.208  12.472   7.676  0.1642  0.1083 -0.0438
    1W        W52945   6.897  13.308   8.856 -0.0076  0.0631  0.2000
    1W        W52946  26.585  29.241   2.786  0.1317 -0.3692 -0.0584
    1W        W52947  13.632  23.316   9.447 -0.0022  0.1628  0.1071
    1W        W52948  20.390  27.432   1.927  0.0938 -0.0092 -0.2941
    1W        W52949   2.086  21.667   7.012  0.0615 -0.1890  0.0258
    1W        W52950  28.868  22.259   2.013 -0.0520  0.0804  0.2379
    1W        W52951   1.000  24.941   7.819 -0.3081 -0.1581  0.2822
    1W        W52952   2.870  15.440   8.405  0.2080 -0.0406 -0.2528
    1W        W52953  10.158   2.088   0.626  0.0838  0.2354 -0.1308
    1W        W52954  24.083   7.629   7.765 -0.0509  0.0863 -0.1289
    1W        W52955   6.736  14.321   6.504 -0.0140  0.0023 -0.1983
    1W        W52956  14.352  14.332   0.600  0.0141 -0.1707  0.2048
    1W        W52957  27.732  22.610   0.150 -0.2746  0.1369  0.0328
    1W        W52958   1.304  15.012   1.808  0.0781 -0.2713  0.0676
    1W        W52959  29.491   7.227   0.028 -0.2029  0.2286 -0.2064
    1W        W52960  24.313   1.654   7.304 -0.0985  0.1462 -0.2251
    1W        W52961  26.695  29.568   6.427  0.1099 -0.0998 -0.1756
    1W        W52962  18.525  14.628   1.705 -0.4672 -0.1334  0.1676
    1W        W52963  26.401   2.462   1.910  0.2965 -0.0826 -0.0360
    1W        W52964  27.222   5.072   2.131 -0.2006  0.0901  0.1090
    1W        W52965  25.554  24.485   6.946 -0.0668 -0.2471 -0.1196
    1W        W52966   7.537   5.157   8.652 -0.0092  0.0200 -0.0004
    1W        W52967   8.076  16.762   1.703  0.0567  0.2308  0.2236
    1W        W52968  11.311  17.427   8.565 -0.1226  0.1537 -0.1241
    1W        W52969  20.991  25.065   2.799  0.2537 -0.0367 -0.0207
    1W        W52970  28.215   5.042   7.998 -0.0440 -0.0091 -0.1274
    1W        W52971   5.162  10.444   7.208  0.1632 -0.2001  0.1381
    1W        W52972   9.483   4.366   0.881 -0.0322 -0.0899  0.1070
    1W        W52973   6.403   8.552   8.394  0.0463 -0.3425  0.2088
    1W        W52974  18.963   9.058   7.148  0.1222  0.1736  0.1520
    1W        W52975   9.422  25.637   8.508  0.1111  0.0972  0.5251
    1W        W52976  18.124  22.549   1.833  0.1427 -0.0250  0.1033
    1W        W52977  22.865  16.048   8.009  0.0007  0.0407  0.1644
    1W        W52978  16.095  27.340   2.460 -0.0627 -0.2799  0.1144
    1W        W52979   6.878  22.725   7.883  0.1094 -0.0411  0.1269
    1W        W52980  13.215   4.688   0.351  0.1580  0.0255  0.0390
    1W        W52981  27.354  28.106   2.160 -0.3446 -0.2549 -0.0711
    1W        W52982   3.389  20.657   8.119 -0.1532  0.1224  0.1571
    1W        W52983  15.332  11.191   0.846 -0.1835 -0.1286 -0.1267
    1W        W52984  12.687  19.504   6.595 -0.0762  0.2054  0.0327
    1W        W52985  15.466  23.054   1.216  0.2337 -0.0432  0.1237
    1W        W52986  28.492   0.436   8.786 -0.2012 -0.2072  0.2067
    1W        W52987  27.495   4.922   8.132 -0.0421  0.0818  0.2589
    1W        W52988   9.063  11.823   0.286  0.0401 -0.0155 -0.3148
    1W        W52989  21.520   0.946   2.320  0.1647 -0.1553  0.0143
    1W        W52990  13.177   4.634   2.328 -0.1469 -0.2855 -0.2488
    1W        W52991  12.669  23.467   0.869  0.0933  0.1195 -0.1649
    1W        W52992  23.166   5.811   1.863  0.0044  0.1558 -0.0089
    1W        W52993   4.831   5.058   1.904  0.2015 -0.3741  0.1581
    1W        W52994  12.677  21.274   0.159  0.0427 -0.2344 -0.0849
    1W        W52995  25.205  27.998   9.039 -0.2483  0.0487 -0.0336
    1W        W52996  19.329   4.432   7.023 -0.2748 -0.1927  0.0442
    1W        W52997  18.512  21.158   7.269 -0.3170 -0.0580  0.2432
    1W        W52998   8.757   5.023   0.745 -0.2730 -0.2331 -0.1948
    1W        W52999  27.362  28.002   0.099  0.1770  0.0454 -0.2925
    1W        W53000  15.149  25.379   1.590 -0.0800  0.0374 -0.0796
    1W        W53001   0.923  12.092   1.731 -0.0102  0.0217 -0.2109
    1W        W53002  23.243   6.629   2.557  0.0432 -0.1245  0.0581
    1W        W53003  17.201  16.249   8.574 -0.0177 -0.1326 -0.0752
    1W        W53004   3.957  11.359   0.019 -0.0506 -0.1302 -0.0569
    1W        W53005   6.243  17.056   5.957 -0.3524 -0.0642  0.2000
    1W        W53006  24.525  22.957   1.092 -0.2449  0.1039 -0.3248
    1W        W53007   3.555  14.499   7.162  0.1936  0.0751  0.3718
    1W        W53008  12.528   6.587   8.832 -0.2078 -0.0224 -0.2999
    1W        W53009  17.137   3.990   2.154 -0.1116 -0.3746 -0.0978
    1W        W53010  23.193   1.119   7.777 -0.2650 -0.3313  0.0827
    1W        W53011  15.960  16.684   7.811  0.3060 -0.3064  0.4624
    1W        W53012   2.561  24.613   7.379  0.2353  0.1620  0.0289
    1W        W53013   9.008  24.223   1.829 -0.0784  0.1518  0.2586
    1W        W53014  29.440  21.268   0.948  0.1017  0.3167  0.0340
    1W        W53015   6.347  29.537   1.677  0.0715  0.0399  0.0254
    1W        W53016  22.051  25.717   1.742  0.1202  0.0499 -0.1565
    1W        W53017   5.236   1.368   1.477 -0.1240 -0.4113 -0.0990
    1W        W53018  21.149   7.570   7.278  0.1173 -0.3219  0.0988
    1W        W53019  19.892  27.039   7.324 -0.0683  0.0952 -0.2061
    1W        W53020  15.665  15.239   7.617  0.0897  0.2117  0.1659
    1W        W53021   4.005   4.859   2.971  0.2174 -0.1707  0.1002
    1W        W53022  19.604   5.689   7.376  0.0063 -0.3202  0.1799
    1W        W53023  22.430  26.702   1.876 -0.0541  0.3254  0.3814
    1W        W53024   2.807  18.828   9.276 -0.0216  0.2219  0.0996
    1W        W53025   5.803  25.513   1.788 -0.1002  0.1955 -0.0758
    1W        W53026  15.424  17.649   9.449 -0.1895 -0.0141  0.1311
    1W        W53027  17.203   8.565   2.142  0.1957 -0.0893  0.0770
    1W        W53028  24.941   5.314   7.951 -0.1775  0.0411 -0.3105
    1W        W53029  20.989   6.982   2.686 -0.0687  0.0794 -0.0634
    1W        W53030  10.979  15.009   7.363 -0.0441  0.2634  0.5038
    1W        W53031  25.212  10.939   8.358 -0.2200 -0.2603 -0.1021
    1W        W53032  13.206  15.498   7.629 -0.0871  0.0472 -0.4374
    1W        W53033  17.807  15.953   0.236 -0.4141 -0.0092 -0.2490
    1W        W53034  23.601   7.762   7.881  0.0333  0.0356 -0.1396
    1W        W53035  21.071  23.035   0.105 -0.1096 -0.0493 -0.1476
    1W        W53036   8.232   7.142   2.630 -0.0109 -0.1692  0.0269
    1W        W53037  25.901   2.209   6.352 -0.2926  0.1797  0.1738
    1W        W53038  14.917  29.121   8.047  0.2272 -0.1550 -0.2581
    1W        W53039  11.581  26.960   7.918 -0.0172  0.0247  0.1265
    1W        W53040  17.817  14.819   9.230  0.0156  0.0962 -0.1836
    1W        W53041   0.101  16.377   2.673  0.2161  0.2579  0.0498
    1W        W53042  12.831  16.514   7.558  0.0407 -0.2566 -0.0565
    1W        W53043  14.470  18.956   8.380 -0.0186  0.1157  0.3475
    1W        W53044  13.865   2.665   8.537 -0.0527  0.0740 -0.0225
    1W        W53045   2.179  26.649   0.804 -0.1086  0.3433  0.0293
    1W        W53046   9.717  10.412   7.978 -0.3911  0.1118  0.1778
    1W        W53047  10.403  15.801   8.232 -0.0889 -0.1238 -0.0387
    1W        W53048  26.533   5.631   2.334 -0.0921  0.1001 -0.1322
    1W        W53049   2.177   7.073   1.673  0.1061  0.1582  0.0875
    1W        W53050   6.514  23.462   6.697 -0.1425  0.0349 -0.2009
    1W        W53051  13.304   6.235   2.123  0.0587 -0.1016  0.0654
    1W        W53052  24.165  16.763   0.788 -0.2990 -0.2196 -0.3188
    1W        W53053  15.588  10.886   0.063  0.0071  0.4617  0.0065
    1W        W53054  14.456  15.149   1.679  0.1977  0.3246 -0.0017
    1W        W53055   1.060   5.512   9.121  0.2383  0.3016 -0.1613
    1W        W53056  22.125  12.530   7.335 -0.0566 -0.1103  0.0427
    1W        W53057   1.153   9.714   5.997 -0.0779  0.0055 -0.3212
    1W        W53058  16.062  13.655   8.594 -0.0467  0.4153  0.1162
    1W        W53059   9.219  26.998   8.967 -0.2812 -0.2480 -0.1815
    1W        W53060  29.533  14.796   6.619 -0.3621  0.1985 -0.0126
    1W        W53061  17.877  16.416   7.918 -0.2246  0.1558  0.0885
    1W        W53062  18.336  10.003   7.008 -0.0073  0.1719 -0.1798
    1W        W53063   3.858  14.381   1.356  0.2859  0.0421 -0.0692
    1W        W53064   4.826  26.022   1.655  0.1574  0.1914  0.1445
    1W        W53065   1.199  10.064   7.690  0.1617 -0.2917  0.2307
    1W        W53066   9.847   8.206   0.274  0.2158  0.2077 -0.0488
    1W        W53067  13.656  17.537   2.579 -0.1828 -0.1093  0.1420
    1W        W53068  15.284  13.474   8.607 -0.1991 -0.0397 -0.2054
    1W        W53069   8.989  13.751   0.450  0.0053 -0.1574 -0.0594
    1W        W53070   1.891   7.636   7.828  0.0376 -0.2880 -0.0685
    1W        W53071  24.358  16.852   8.933  0.2616  0.1114  0.3463
    1W        W53072  21.520   7.174   1.479 -0.0511 -0.0693  0.1340
    1W        W53073  14.352   6.572   6.721 -0.0103 -0.1010  0.2899
    1W        W53074  29.085  18.985   8.491  0.0204  0.1893 -0.0031
    1W        W53075  18.164   8.723   8.148  0.2037 -0.0198 -0.1489
    1W        W53076  12.151  24.439   9.237 -0.1765 -0.1943 -0.0731
    1W        W53077  20.230   4.189   2.258 -0.1812  0.1239  0.1159
    1W        W53078  18.181  23.402   2.477 -0.0854  0.0737 -0.1360
    1W        W53079   2.653   9.493   0.433  0.0204  0.2609 -0.3194
    1W        W53080  13.060  29.023   3.167  0.2168  0.0739 -0.1803
    1W        W53081  15.300   5.184   9.364 -0.0130 -0.0784 -0.0030
    1W        W53082  24.912   2.542   2.093 -0.1705  0.0915 -0.1842
    1W        W53083   7.417  22.674   6.695  0.0928 -0.1277 -0.1440
    1W        W53084   2.601  14.208   9.330  0.1610  0.2238 -0.2968
    1W        W53085  24.049  12.950   1.388  0.0236 -0.3447  0.0423
    1W        W53086  14.066   7.171   9.121  0.1637  0.1245 -0.0911
    1W        W53087  21.011   4.273   8.796 -0.0215 -0.1566 -0.1565
    1W        W53088  16.717  22.150   1.726  0.0510  0.1105  0.1816
    1W        W53089  23.622  24.378   1.474 -0.0655 -0.0201  0.0804
    1W        W53090  25.106   7.046   2.192 -0.0595  0.1074  0.0127
    1W        W53091  20.086   9.554   1.760  0.1550 -0.0264 -0.2510
    1W        W53092   7.537  28.247   2.684  0.1737 -0.0393 -0.3359
    1W        W53093  18.704  12.714   7.933 -0.0557  0.0821  0.1243
    1W        W53094   9.575  23.934   6.933 -0.0391 -0.2172 -0.0717
    1W        W53095  12.115  19.017   8.827 -0.0686 -0.0221 -0.0541
    1W        W53096   0.578   1.717   3.268 -0.2148  0.1925 -0.0928
    1W        W53097  18.493  29.237   2.959  0.0077  0.0317  0.3061
    1W        W53098  28.972  13.226   1.854 -0.0284 -0.0440 -0.0550
    1W        W53099  22.064   7.555   3.372  0.1096 -0.1660  0.4046
    1W        W53100  19.893   6.840   8.438 -0.1977 -0.1578  0.2267
    1W        W53101  19.259  22.090   7.835 -0.0947 -0.0608  0.0980
    1W        W53102  24.997  21.344   8.954 -0.2411 -0.0932  0.0586
    1W        W53103  16.501   7.990   9.142 -0.0825  0.3626 -0.0840
    1W        W53104  18.553  27.543   2.657  0.1773 -0.0958  0.2288
    1W        W53105   3.898  24.242   0.887 -0.0027 -0.1420 -0.2009
    1W        W53106   7.764  12.135   8.145 -0.3093 -0.0545  0.5176
    1W        W53107  24.344  18.440   1.478  0.0286 -0.1435 -0.2198
    1W        W53108  21.306  23.602   2.601  0.1113 -0.0022 -0.0180
    1W        W53109   5.224  17.185   5.693  0.1395  0.1074 -0.2302
    1W        W53110  28.992   4.713   8.379 -0.1837 -0.1248 -0.1497
    1W        W53111   1.289  15.993   6.458  0.1045  0.0096  0.0057
    1W        W53112  15.752  25.961   0.561  0.3095  0.0512  0.2360
    1W        W53113  15.647  24.666   8.177 -0.0746 -0.1459 -0.1507
    1W        W53114  17.260   0.322   7.302 -0.0757 -0.2380 -0.1014
    1W        W53115  11.312  29.792   0.415 -0.1551 -0.0140  0.3798
    1W        W53116  11.661  29.438   0.747  0.1616 -0.3907  0.1053
    1W        W53117  21.521  25.513   1.898 -0.1012  0.1652 -0.1675
    1W        W53118   6.336   6.558   3.730  0.3175  0.4751  0.0533
    1W        W53119  14.505  24.894   8.430 -0.0896  0.0053 -0.2629
    1W        W53120   6.036  29.032   7.290 -0.2109  0.0384 -0.0447
    1W        W53121  24.863  25.105   2.325  0.1312 -0.1943 -0.0967
    1W        W53122  15.809  20.566   2.043  0.0709  0.0549  0.4559
    1W        W53123   2.566   6.524   1.672 -0.1193  0.1604  0.0083
    1W        W53124   3.044  17.790   8.488  0.0334 -0.1105 -0.1562
    1W        W53125   6.103  29.238   3.458  0.3928  0.0870  0.1726
    1W        W53126   4.604   6.407   2.181 -0.1579 -0.3336 -0.1071
    1W        W53127   9.261   3.976   2.787 -0.2246 -0.1901 -0.0821
    1W        W53128  14.399  24.942   0.129  0.0366  0.0095 -0.1844
    1W        W53129  25.374  12.194   6.918  0.1505 -0.2228 -0.2123
    1W        W53130  14.579   6.005   8.890 -0.0162 -0.2476  0.0982
    1W        W53131  18.859  12.336   1.280  0.1545  0.2488  0.1930
    1W        W53132   4.334  20.922   6.995  0.0740 -0.1583  0.3348
    1W        W53133  28.075   3.548   2.566 -0.2189  0.1322  0.0200
    1W        W53134   2.476  19.139   7.182 -0.2021  0.0756  0.2060
    1W        W53135  17.614   4.160   7.232  0.1570 -0.1841 -0.0836
    1W        W53136   0.923  22.606   6.081 -0.0773 -0.0339  0.1559
    1W        W53137   2.177  22.633   0.092  0.1213  0.0574  0.1354
    1W        W53138  29.491  19.146   1.626 -0.2253 -0.0309  0.2016
    1W        W53139   7.196  24.736   8.395  0.1500 -0.0410 -0.3734
    1W        W53140  17.135  14.657   7.399 -0.0237  0.0030  0.1840
    1W        W53141   9.743  22.881   7.122 -0.1911 -0.1351 -0.0344
    1W        W53142  23.320   9.663   6.696  0.2550 -0.1829 -0.2591
    1W        W53143  29.582   3.790   0.014 -0.0723 -0.0376  0.0487
    1W        W53144   6.698   5.727   8.480 -0.1529 -0.1536  0.0106
    1W        W53145   1.759  14.828   7.675 -0.2810 -0.1053 -0.2578
    1W        W53146   9.891  28.659   8.099  0.1551 -0.0015 -0.2231
    1W        W53147  24.509  14.099   7.240 -0.1381 -0.2043 -0.2480
    1W        W53148  11.006  16.187   1.374 -0.0401  0.0269  0.1516
    1W        W53149  19.732  21.150   3.144  0.0777 -0.0676 -0.1972
    1W        W53150  16.398  27.113   7.148 -0.3050 -0.1245 -0.2456
    1W        W53151   7.993   3.378   8.977 -0.0678 -0.1568 -0.0729
    1W        W53152   3.046  11.029   6.932 -0.4031 -0.0530  0.1599
    1W        W53153  22.842   3.220   7.713 -0.2661 -0.0650 -0.3734
    1W        W53154  11.194   2.423   2.250  0.0328  0.0024  0.0408
    1W        W53155  11.882  22.500   7.144  0.1057 -0.1632  0.1391
    1W        W53156   5.253   4.051   3.306 -0.0887  0.3100  0.2314
    1W        W53157   2.006   2.278   2.063 -0.1430  0.0785  0.2818
    1W        W53158   9.663  21.169   2.426  0.0287  0.0330  0.2582
    1W        W53159  11.215  28.119   9.201  0.2695 -0.0003 -0.3148
    1W        W53160   1.222  13.397   6.428 -0.1629  0.0436  0.0753
    1W        W53161  13.656   8.093   2.680 -0.2452 -0.1217  0.0037
    1W        W53162  23.029  18.067   8.044  0.4349 -0.1254  0.0423
    1W        W53163  10.491  26.432   8.219 -0.1380 -0.1118 -0.3159
    1W        W53164  23.811  28.840   1.149  0.0383 -0.0624 -0.0515
    1W        W53165  21.668  28.394   1.498 -0.0550 -0.0296 -0.0280
    1W        W53166   2.050   6.222   0.374  0.0038  0.0151  0.2055
    1W        W53167  23.531  28.079   8.560  0.0138  0.0948  0.0046
    1W        W53168   8.863  26.526   2.051 -0.4308  0.1658 -0.1596
    1W        W53169  16.022   7.214   0.670  0.1399 -0.2137 -0.0305
    1W        W53170  24.211  27.155   9.415 -0.1140  0.2395  0.1738
    1W        W53171   9.858  10.440   8.467  0.0559  0.2832  0.3548
    1W        W53172  12.822  27.887   1.934  0.0740 -0.0413 -0.3526
    1W        W53173  13.958   0.379   1.601  0.2913  0.1450  0.1775
    1W        W53174  10.531  28.875   1.295  0.1068 -0.0408 -0.1661
    1W        W53175  16.305  26.029   7.250 -0.2161  0.2044 -0.1814
    1W        W53176  19.251   1.459   7.388  0.2158 -0.0813 -0.0204
    1W        W53177  29.310  22.422   1.202  0.1975  0.0842 -0.2308
    1W        W53178  18.186   9.105   8.561 -0.0639  0.1212 -0.2855
    1W        W53179   5.129   6.142   8.243 -0.0798  0.0648 -0.1122
    1W        W53180  22.926  25.976   2.723  0.1904 -0.0380 -0.0552
    1W        W53181   6.622  14.522   8.832  0.1729 -0.1447  0.0116
    1W        W53182  13.700  25.262   6.694 -0.0131  0.0636  0.1204
    1W        W53183   1.196   7.985   2.980  0.3014 -0.3171  0.1661
    1W        W53184  25.023  24.597   2.054 -0.2942  0.0094 -0.0390
    1W        W53185  17.492  19.286   8.244  0.3313  0.0011 -0.2018
    1W        W53186  16.516   9.776   0.139 -0.0590  0.2313 -0.0123
    1W        W53187   2.605  27.374   9.351 -0.0751  0.1043  0.1196
    1W        W53188  13.900  23.354   0.495 -0.0305  0.3062  0.2825
    1W        W53189  22.901   7.383   2.189 -0.2322  0.3576 -0.3123
    1W        W53190  15.009   0.832   2.245 -0.4162  0.1685 -0.2520
    1W        W53191   1.190   7.509   6.118 -0.3079 -0.2272 -0.2179
    1W        W53192  22.199  20.662   9.303  0.5184  0.1049  0.1811
    1W        W53193  12.905   6.463   8.387 -0.0619 -0.0596  0.0363
    1W        W53194  14.622  23.099   7.598 -0.0062 -0.2248 -0.1055
    1W        W53195  12.686  26.480   0.209  0.0661  0.1020 -0.1709
    1W        W53196  27.708  15.273   6.345  0.2083 -0.1683  0.2144
    1W        W53197  17.852   6.991   1.205 -0.0036  0.3252 -0.1324
    1W        W53198  10.628  19.125   1.195 -0.2631 -0.0561  0.3500
    1W        W53199  13.759  29.160   8.446  0.3119  0.1396  0.0055
    1W        W53200  22.617  12.114   7.166  0.0132  0.0803 -0.0612
    1W        W53201   0.326   0.100   8.048  0.0582  0.0106 -0.2038
    1W        W53202  22.236  24.272   8.113  0.0576  0.0688  0.1508
    1W        W53203  18.210   3.147   1.722 -0.0319  0.0276  0.0464
    1W        W53204  28.120  22.480   6.779 -0.1854  0.1263 -0.2746
    1W        W53205   2.381   9.525   7.444  0.2513 -0.0784 -0.0410
    1W        W53206  24.502   2.693   7.931  0.0113 -0.3564 -0.0773
    1W        W53207  16.958  21.560   6.977  0.1059  0.0796 -0.2027
    1W        W53208  25.344  20.588   3.188 -0.0929 -0.3478 -0.2875
    1W        W53209  29.046  14.497   1.299  0.2094  0.1484 -0.1881
    1W        W53210  14.213   9.927   8.542  0.1875  0.0858 -0.0089
    1W        W53211  17.658  25.061   9.093  0.0216  0.1603  0.0979
    1W        W53212   3.528  28.738   3.351 -0.1263 -0.0889  0.2261
    1W        W53213  23.641   7.896   0.719  0.1327  0.3725  0.0421
    1W        W53214  17.026  19.199   8.424  0.1187  0.0310 -0.0407
    1W        W53215  18.739   9.519   7.183  0.0294  0.1832 -0.0493
    1W        W53216  20.360   4.415   7.961  0.2695  0.0390 -0.0722
    1W        W53217   9.153   5.146   0.342  0.0552 -0.1750 -0.1196
    1W        W53218  13.535  21.315   0.622  0.4209  0.1686 -0.2627
    1W        W53219  25.704  27.657   0.863  0.4671 -0.0841 -0.4097
    1W        W53220  21.499  29.111   7.570  0.1946 -0.2712  0.2096
    1W        W53221   2.567   3.723   7.913  0.0287 -0.1743 -0.1051
    1W        W53222  11.202   8.560   2.456 -0.0655  0.0157 -0.5180
    1W        W53223  18.165  19.624   7.440 -0.1523 -0.1542  0.0560
    1W        W53224  28.185  18.898   2.603 -0.0401 -0.4415 -0.0800
    1W        W53225  28.923   2.785   2.174  0.0786  0.1544  0.2191
    1W        W53226   7.259  25.912   1.051 -0.0821 -0.0418  0.2899
    1W        W53227   7.695   1.310   2.807  0.3983  0.1679  0.0791
    1W        W53228  29.665  23.234   6.270  0.1229  0.0827  0.1110
    1W        W53229   5.274   7.866   7.433  0.3902  0.1191  0.2287
    1W        W53230  18.369  29.316   1.847  0.0365  0.2149  0.1158
    1W        W53231  11.758  22.312   8.024  0.4447 -0.1970 -0.2386
    1W        W53232  12.966  10.458   1.438 -0.0696  0.0018 -0.1308
    1W        W53233   6.057   2.979   2.738 -0.3563  0.1491 -0.0668
    1W        W53234  22.181  22.256   8.248  0.1599  0.0149 -0.0253
    1W        W53235   3.557  23.986   9.099  0.0758 -0.1505 -0.2124
    1W        W53236  17.957  20.970   2.563 -0.3335  0.0520 -0.1172
    1W        W53237  14.252   3.908   8.332  0.0527  0.0758 -0.0270
    1W        W53238  11.401  17.936   8.633 -0.0354  0.0995 -0.0281
    1W        W53239  23.426  11.388   5.852  0.2550 -0.1005  0.1762
    1W        W53240  25.375  17.061   6.279  0.1633 -0.4152  0.1455
    1W        W53241  19.015  19.596   7.910  0.0696  0.0352 -0.0249
    1W        W53242   2.426   7.582   7.703 -0.3593  0.2629 -0.0555
    1W        W53243  25.021  12.440   0.446  0.0846  0.2814 -0.0794
    1W        W53244  16.025   7.086   2.091 -0.2472 -0.1856 -0.1028
    1W        W53245   4.810  11.775   1.545  0.0734  0.0380  0.0309
    1W        W53246  28.774  13.038   7.172  0.0281  0.0992  0.1033
    1W        W53247  17.532  22.262   7.021  0.0380  0.1520 -0.1686
    1W        W53248   3.290  28.576   7.478 -0.0613 -0.1253 -0.0639
    1W        W53249   2.113  28.244   8.201  0.1802 -0.1588 -0.0612
    1W        W53250   8.038  25.025   2.604  0.0994  0.1306  0.3597
    1W        W53251  21.648  10.154   7.174 -0.3827 -0.2295  0.2104
    1W        W53252   4.346   8.524   2.360 -0.0531 -0.0556  0.0000
    1W        W53253  27.582  26.759   9.202 -0.0671  0.1227 -0.0297
    1W        W53254  10.414   8.160   7.930  0.1377  0.0602  0.1797
    1W        W53255  13.763  14.908   8.393  0.1990  0.2249  0.0966
    1W        W53256  17.316   8.649   9.023  0.1244  0.0006  0.3334
    1W        W53257  16.282   2.347   0.646  0.1631  0.0979 -0.1192
    1W        W53258  26.403  15.210   8.331 -0.0127 -0.1188 -0.0951
    1W        W53259   2.977  15.137   9.458 -0.0624  0.1823 -0.1250
    1W        W53260  13.421   3.539   9.202 -0.1773 -0.2514  0.1901
    1W        W53261  18.289   5.541   6.404 -0.0475  0.0104  0.0401
    1W        W53262   4.879  25.407   0.486  0.2775 -0.1874  0.0150
    1W        W53263   1.630  20.667   0.891 -0.0871  0.3606 -0.1795
    1W        W53264  26.230  13.972   1.591  0.2936  0.0084  0.2994
    1W        W53265  23.837  23.095   8.227 -0.3170  0.0552  0.2557
    1W        W53266  10.727  14.271   1.116 -0.0498 -0.2175  0.0373
    1W        W53267  10.970  13.175   9.056 -0.1499  0.2094  0.1201
    1W        W53268  16.979   2.652   1.231 -0.0133 -0.1059  0.1927
    1W        W53269   7.131   3.852   1.127  0.2597  0.2497 -0.1486
    1W        W53270  21.881   1.631   8.713  0.4437 -0.1534  0.1836
    1W        W53271   7.139   4.890   2.981  0.0450  0.0388  0.0609
    1W        W53272  11.365  21.340   0.979  0.0040 -0.0363  0.1610
    1W        W53273   0.482  28.963   6.843  0.3447  0.0755 -0.0126
    1W        W53274  18.782  13.089   1.603 -0.2289 -0.0427  0.0813
    1W        W53275   6.429  22.932   7.622 -0.4259  0.0011 -0.1963
    1W        W53276  12.195  15.424   8.710 -0.2124  0.0957  0.1260
    1W        W53277  21.600   0.125   1.312  0.2117 -0.0387 -0.0859
    1W        W53278  15.705  28.064   8.507  0.2017  0.2194  0.1469
    1W        W53279  12.192   3.625   6.887 -0.0755 -0.1287  0.0863
    1W        W53280   6.832  12.742   8.841  0.1909  0.0321 -0.1570
    1W        W53281  10.848  16.973   7.531 -0.0363 -0.0014 -0.1620
    1W        W53282  25.965   2.047   1.254 -0.2524 -0.0242 -0.0118
    1W        W53283   0.229   1.473   7.267 -0.1686 -0.1191  0.0165
    1W        W53284  26.511  27.185   8.370 -0.0691  0.0436 -0.0861
    1W        W53285  13.916  13.589   2.222  0.1147  0.0302  0.2377
    1W        W53286  16.964  27.025   1.014 -0.1846  0.2333 -0.1187
    1W        W53287  12.165  18.721   1.305  0.2895 -0.1178  0.0858
    1W        W53288  21.545  19.759   1.220  0.1248 -0.1871 -0.0055
    1W        W53289   8.321   2.891   8.957 -0.2003  0.0330  0.0165
    1W        W53290   5.309  22.524   1.969 -0.2477  0.0684 -0.0434
    1W        W53291  26.107  21.125   7.794 -0.0206  0.1084  0.2522
    1W        W53292   9.270  24.906   0.122  0.2617 -0.0918 -0.1966
    1W        W53293  25.815  20.098   1.268 -0.2565 -0.3626 -0.3339
    1W        W53294  22.915  20.747   7.093  0.3375 -0.1192 -0.4498
    1W        W53295  18.631  22.715   7.415 -0.0272 -0.0341  0.2565
    1W        W53296   9.009  15.438   1.916  0.0551 -0.0741  0.1258
    1W        W53297   9.523   2.343   8.390  0.0377  0.3710 -0.2117
    1W        W53298  11.167  28.999   8.252  0.0554  0.0708  0.0548
    1W        W53299   2.869  16.550   7.776 -0.2050 -0.3970 -0.2606
    1W        W53300  25.039  15.745   7.977 -0.2585 -0.0906 -0.0247
    1W        W53301   5.125  28.283   1.180 -0.0865  0.0166  0.0202
    1W        W53302   8.692  17.678   1.403 -0.0515 -0.2374  0.1236
    1W        W53303  13.491   0.471   6.826  0.0787  0.4444 -0.0826
    1W        W53304  22.320   1.464   0.049 -0.2239  0.2190  0.0624
    1W        W53305  23.534  22.593   1.346  0.2086  0.2643 -0.3033
    1W        W53306   6.780   5.323   8.727  0.1416 -0.2875 -0.1536
    1W        W53307   2.140  15.054   7.192 -0.0402 -0.0702  0.1243
    1W        W53308  20.757  26.230   7.644  0.1804  0.1458 -0.1274
    1W        W53309  23.092  25.163   0.500 -0.0462 -0.0162 -0.1470
    1W        W53310  14.087  13.372   9.197  0.2426 -0.0041  0.2122
    1W        W53311   4.412   3.082   0.704 -0.3016  0.1281 -0.3125
    1W        W53312  13.334  17.383   9.159 -0.2838 -0.3098 -0.2754
    1W        W53313  18.025  10.892   1.023  0.0563  0.1005 -0.0465
    1W        W53314   8.799  21.340   1.292 -0.2408  0.0371  0.0949
    1W        W53315  15.615  21.723   0.731  0.0636 -0.1746  0.4426
    1W        W53316   7.958  23.444   9.039  0.0731  0.1481 -0.0819
    1W        W53317   8.809  18.977   8.244  0.1318 -0.0290  0.1838
    1W        W53318  21.961  25.970   2.375  0.1667  0.2702  0.0289
    1W        W53319   8.233  19.584   0.430  0.0044 -0.2797  0.0537
    1W        W53320   8.489  26.570   1.654 -0.1931  0.2373 -0.0710
    1W        W53321  14.514   7.774   2.621 -0.1315 -0.0523 -0.1570
    1W        W53322   6.310  21.154   1.310  0.1196  0.0971 -0.0095
    1W        W53323  19.564   1.221   0.548  0.2482  0.1409 -0.0459
    1W        W53324   0.125   9.712   8.390  0.1329  0.0726 -0.1201
    1W        W53325  18.768  29.406   8.777  0.1422 -0.0602  0.1333
    1W        W53326   3.024   1.024   8.125  0.0014 -0.3930 -0.2464
    1W        W53327   0.060  14.425   1.683  0.1322 -0.1246 -0.0051
    1W        W53328  18.676  20.498   2.432 -0.0193  0.1105 -0.2000
    1W        W53329  11.931   3.980   8.965 -0.1563  0.0335  0.4070
    1W        W53330  28.939   2.468   2.573 -0.1607  0.1001  0.1615
    1W        W53331   5.071  15.484   7.957  0.0277  0.1599  0.2741
    1W        W53332  13.753  22.113   5.978  0.0518  0.1331  0.0055
    1W        W53333  10.134  28.773   1.672  0.4115  0.1625  0.0423
    1W        W53334  13.609   4.725   2.124  0.1607  0.0708 -0.0196
    1W        W53335  12.768  27.387   1.894  0.1243  0.1708  0.1669
    1W        W53336  13.183  26.922   9.040  0.1243 -0.0732 -0.0186
    1W        W53337  20.346   1.965   2.246 -0.1269  0.1847  0.0692
    1W        W53338   8.559   0.184   2.862  0.1558 -0.0245  0.3027
    1W        W53339   9.980   9.718   9.162  0.4437 -0.1226  0.0077
    1W        W53340  18.224   2.284   0.416 -0.1396  0.1784 -0.1944
    1W        W53341  23.484   4.472   7.835  0.0933 -0.0358  0.0321
    1W        W53342  19.125  19.752   8.439 -0.2073  0.1523 -0.1695
    1W        W53343   5.737  29.449   0.084 -0.1932  0.2564  0.2690
    1W        W53344  22.357   6.763   8.137 -0.0690  0.4307  0.0793
    1W        W53345  17.962  15.023   7.207 -0.2585  0.0679  0.2099
    1W        W53346  25.188  10.984   9.027 -0.1239  0.2331 -0.0734
    1W        W53347  21.878  16.681   0.161  0.0321  0.1646 -0.3021
    1W        W53348  16.078  27.925   9.255 -0.0227 -0.0724 -0.1922
    1W        W53349   4.794  15.278   7.562  0.0913 -0.2034  0.0132
    1W        W53350   4.537   3.001   3.408  0.2302  0.1401  0.1339
    1W        W53351  19.168  14.401   0.608  0.2857 -0.0931  0.1903
    1W        W53352   0.761  22.459   8.163 -0.2071  0.0256  0.1676
    1W        W53353   0.813  15.235   1.017  0.0243  0.2042 -0.0974
    1W        W53354   9.076  27.893   7.536  0.2102 -0.0428  0.0446
    1W        W53355  29.230  21.523   9.382 -0.0781  0.2290 -0.0678
    1W        W53356  29.419   7.884   0.990  0.0387 -0.2348  0.1425
    1W        W53357  25.281  26.472   1.338  0.0414 -0.1394  0.1878
    1W        W53358  26.344  19.115   8.228 -0.1910  0.1784 -0.1146
    1W        W53359   2.238   9.231   8.287  0.0084 -0.4870  0.1409
    1W        W53360   9.097  15.384   9.158 -0.1554  0.0215 -0.1965
    1W        W53361   8.591   0.470   8.219 -0.3432 -0.1217 -0.0159
    1W        W53362  14.895   2.347   9.032 -0.3459 -0.0809 -0.1468
    1W        W53363  17.719  23.531   2.662  0.0292  0.2519  0.3643
    1W        W53364  26.151  29.464   8.465 -0.0189 -0.1468 -0.0409
    1W        W53365  26.982  13.014   7.633 -0.2508 -0.0235  0.0432
    1W        W53366  18.468  26.862   3.031  0.0212  0.0215 -0.1675
    1W        W53367   1.747  26.667   8.907 -0.0651  0.1069  0.1346
    1W        W53368   7.040   1.406   0.822  0.0758  0.0522  0.2336
    1W        W53369  10.861  24.559   2.030 -0.0602  0.1168  0.0089
    1W        W53370  20.233   9.923   2.257 -0.0333 -0.1407 -0.0914
    1W        W53371   3.908  18.677   6.535  0.0446  0.0658 -0.1091
    1W        W53372  21.956  26.069   7.919  0.0711  0.0633  0.0358
    1W        W53373  16.091  12.542   7.197 -0.2608  0.0570  0.2895
    1W        W53374  17.633   5.724   1.711 -0.1369  0.0958 -0.3330
    1W        W53375  28.652  23.922   0.454 -0.0135  0.2091  0.1382
    1W        W53376  17.516  24.915   1.222  0.3185  0.1029 -0.1957
    1W        W53377  23.015  16.301   6.905 -0.1778 -0.0198 -0.3688
    1W        W53378  23.554  26.492   1.060  0.2230  0.0208 -0.0728
    1W        W53379  11.229  13.217   7.629 -0.0609  0.0286  0.0025
    1W        W53380  15.923  15.822   0.095  0.1741 -0.2263  0.0224
    1W        W53381  26.026  15.408   9.253 -0.0111 -0.0680 -0.0825
    1W        W53382  22.207  26.119   9.027 -0.2103  0.1696  0.0035
    1W        W53383   5.086  16.117   8.352 -0.2984  0.2694 -0.0460
    1W        W53384   0.211  17.326   9.268  0.1587  0.1520  0.0812
    1W        W53385  28.860   7.911   1.557 -0.0397 -0.1122 -0.0839
    1W        W53386  26.291  10.615   1.027 -0.2124 -0.4115  0.3307
    1W        W53387  20.966   6.039   1.693  0.0551 -0.1323  0.3188
    1W        W53388  17.751  25.105   2.327 -0.0216 -0.2652 -0.2167
    1W        W53389   3.716  18.453   7.054 -0.2353  0.0916 -0.2608
    1W        W53390   4.610  22.919   1.441  0.0046 -0.2909 -0.3688
    1W        W53391  20.898   5.460   8.356 -0.0178  0.3145 -0.2380
    1W        W53392   4.964   1.141   3.428 -0.1579  0.0646 -0.1115
    1W        W53393  22.138  28.567   1.566 -0.1518  0.1396 -0.1384
    1W        W53394  13.650  10.743   8.971  0.1133  0.2194  0.1802
    1W        W53395  20.384   4.746   8.322  0.1584  0.0745 -0.1588
    1W        W53396  25.747  10.753   7.287  0.0597 -0.1521 -0.1752
    1W        W53397   4.327  18.956   1.881 -0.0321 -0.1402 -0.3533
    1W        W53398  10.533   8.573   8.628  0.1002 -0.1835 -0.0606
    1W        W53399   5.011  16.852   1.705 -0.1287  0.0641 -0.1621
    1W        W53400  24.666  16.634   9.264 -0.0413  0.0850  0.2492
    1W        W53401   5.446  11.124   1.510 -0.2134 -0.2268 -0.0147
    1W        W53402  21.416  23.753   7.953 -0.0846 -0.1398  0.0359
    1W        W53403  25.040  10.012   0.959 -0.0180 -0.1193 -0.0607
    1W        W53404  17.120   6.127   1.280  0.2750  0.2809 -0.1249
    1W        W53405  25.407  13.672   5.433 -0.0317  0.0501 -0.1725
    1W        W53406   8.198  24.626   1.670  0.3105 -0.1996  0.2189
    1W        W53407  24.298  23.648   1.680 -0.0177  0.2391 -0.0666
    1W        W53408  20.069   0.949   8.443 -0.0740 -0.0116 -0.0271
    1W        W53409   6.485  13.431   8.349 -0.0184 -0.0216 -0.0597
    1W        W53410  28.406  20.474   6.279  0.1685 -0.1307  0.1269
    1W        W53411  27.898  25.769   7.120 -0.2232  0.0386  0.0947
    1W        W53412  16.292   8.439   9.215 -0.1784  0.0561  0.3183
    1W        W53413  13.831   3.775   0.027 -0.3875  0.1811 -0.0268
    1W        W53414  23.910  12.008   8.005 -0.1210  0.2368 -0.0163
    1W        W53415  22.793  26.145   7.813 -0.0883  0.1016  0.1669
    1W        W53416  28.587  18.202   1.909  0.0717  0.1817 -0.0862
    1W        W53417  17.988   7.167   1.698  0.0945 -0.2814 -0.1928
    1W        W53418  27.948  11.520   6.318  0.1369 -0.2520  0.2782
    1W        W53419  12.445  21.264   9.186  0.0385 -0.0527  0.1238
    1W        W53420  13.246  11.763   8.995 -0.4279 -0.3393  0.0222
    1W        W53421   4.123  25.889   0.909  0.1097  0.4345 -0.1093
    1W        W53422  14.911  25.915   8.939  0.1489  0.0026 -0.0678
    1W        W53423   2.903  11.105   7.548  0.1602 -0.2331 -0.2907
    1W        W53424  23.842  17.631   1.251  0.1277 -0.2707 -0.0696
    1W        W53425   6.303   9.236   2.306 -0.1014  0.0090  0.1864
    1W        W53426   7.281   8.783   8.762  0.1986 -0.0825  0.2840
    1W        W53427  22.590   4.326   2.558  0.0991 -0.2082  0.1640
    1W        W53428  15.903   2.652   7.843 -0.2230  0.1314 -0.6123
    1W        W53429  16.868   1.721   2.830 -0.0195  0.0438 -0.2000
    1W        W53430  16.970   7.349   1.915  0.0440 -0.2268  0.2832
    1W        W53431   1.377  25.549   1.390  0.1633 -0.1803  0.1372
    1W        W53432  22.486  20.861   1.766  0.0724 -0.0324  0.2838
    1W        W53433  27.177   9.226   5.836 -0.3620 -0.1714 -0.2684
    1W        W53434  22.097   9.309   7.497  0.0381 -0.0575  0.1811
    1W        W53435  15.763  10.579   7.988 -0.1357  0.1262 -0.1221
    1W        W53436  22.698   6.397   1.078  0.1080 -0.1649  0.1346
    1W        W53437  26.708   4.187   1.611  0.1003  0.0936  0.1599
    1W        W53438  28.265  13.174   1.587  0.1066  0.0350 -0.1019
    1W        W53439   4.606  13.600   7.690  0.0106 -0.0026 -0.2830
    1W        W53440  23.565   4.867   2.789 -0.0505 -0.1175 -0.0978
    1W        W53441  28.353   5.614   0.243  0.1906  0.1362 -0.0052
    1W        W53442   5.726  11.603   0.493 -0.1087  0.0581  0.0053
    1W        W53443   3.338  25.419   1.187 -0.0393 -0.2986  0.0199
    1W        W53444  16.232   0.706   8.515 -0.3293  0.1182 -0.4829
    1W        W53445  14.867   0.948   1.114 -0.3005 -0.0230  0.3333
    1W        W53446  26.020   6.791   1.843 -0.0970  0.2354 -0.1440
    1W        W53447   6.291  12.501   1.893  0.2521  0.1917  0.0137
    1W        W53448   2.544   2.693   1.067  0.0849  0.3321  0.3206
    1W        W53449  15.757   0.386   1.442  0.1350  0.1581  0.2123
    1W        W53450  20.214  15.608   7.882 -0.0429  0.1267  0.3203
    1W        W53451  27.257  11.418   2.281  0.1152 -0.1425  0.0520
    1W        W53452   3.470  12.527   8.032 -0.1246 -0.2019 -0.1615
    1W        W53453  14.033  18.645   8.057 -0.1567  0.0884 -0.0820
    1W        W53454   6.760   8.037   0.600  0.0818 -0.2190  0.1918
    1W        W53455  26.398   3.488   9.434  0.0115 -0.1989  0.0878
    1W        W53456   4.422  22.608   6.358  0.0273  0.0016  0.2946
    1W        W53457  20.550  29.048   0.919  0.1185  0.3984  0.4025
    1W        W53458  18.339  24.725   8.086  0.0333 -0.1187  0.0987
    1W        W53459   9.654  17.524   8.000 -0.3043 -0.1236  0.0545
    1W        W53460  17.544   3.616   8.857 -0.0823 -0.1183  0.1503
    1W        W53461   4.088   4.626   8.333  0.0989  0.1799  0.2966
    1W        W53462  15.708   3.410   6.413 -0.3145 -0.0828 -0.0913
    1W        W53463   9.968  13.283   8.019  0.0023 -0.1136 -0.1664
    1W        W53464  16.097  15.801   9.052  0.0351 -0.2368 -0.1262
    1W        W53465  21.538  27.960   1.752  0.1037 -0.1610 -0.1713
    1W        W53466  29.451   8.346   9.207  0.0045 -0.0067  0.1728
    1W        W53467  11.776  19.651   6.302 -0.0053 -0.1145 -0.0095
    1W        W53468   6.950  11.451   7.379 -0.2413  0.0419 -0.1820
    1W        W53469  23.623  19.691   1.439 -0.0654  0.1283  0.0539
    1W        W53470   7.898   3.076   8.506  0.0993 -0.1723  0.4109
    1W        W53471  15.162  21.231   8.008  0.3492 -0.1941  0.1537
    1W        W53472   7.469  22.465   9.289 -0.1723 -0.3953 -0.1714
    1W        W53473  14.361  12.142   1.848  0.2127 -0.1354  0.0845
    1W        W53474   2.392  24.405   5.958  0.0566 -0.1430  0.3010
    1W        W53475  23.485   2.790   8.104  0.0787 -0.1260 -0.1093
    1W        W53476   2.630   9.821   8.364  0.1191  0.0579 -0.2391
    1W        W53477   6.041  23.306   6.530 -0.0462 -0.0283  0.1777
    1W        W53478  23.241  11.575   8.861  0.3291  0.0322  0.4355
    1W        W53479  22.875  10.143   1.855  0.3296 -0.0041  0.2440
    1W        W53480  10.772   1.516   0.128 -0.1726 -0.4323 -0.0880
    1W        W53481   0.760  17.488   9.219 -0.1664 -0.3080  0.0864
    1W        W53482   1.816   9.831   7.678 -0.3682 -0.0752 -0.0857
    1W        W53483  28.057  25.448   1.604  0.0874  0.1005 -0.0235
    1W        W53484   4.468  24.797   8.500  0.1265  0.1706 -0.1955
    1W        W53485  26.711   2.457   7.496  0.1012 -0.2337 -0.0252
    1W        W53486  12.657   0.951   7.729 -0.0232 -0.2378 -0.2503
    1W        W53487   4.374   6.757   1.147 -0.4295 -0.0815 -0.2954
    1W        W53488  23.820   9.936   1.278 -0.0415 -0.1444 -0.3468
    1W        W53489   1.113  23.086   7.653 -0.1225 -0.1035 -0.1683
    1W        W53490  13.881   1.248   6.870 -0.1594  0.0770  0.2604
    1W        W53491   4.919  26.885   8.469  0.3199  0.0184 -0.0639
    1W        W53492  21.863   4.753   7.390  0.1702  0.0319 -0.1758
    1W        W53493  19.995  20.194   2.899 -0.1615  0.1489 -0.2591
    1W        W53494   4.120   6.620   0.359 -0.0502  0.3201  0.0590
    1W        W53495  19.188  21.171   8.200 -0.1045 -0.1134  0.0541
    1W        W53496  19.816  10.319   1.663  0.0788  0.2560  0.0936
    1W        W53497   1.913   1.651   6.607  0.2212  0.0460  0.0066
    1W        W53498  15.858  14.046   1.359 -0.2588  0.2076  0.0225
    1W        W53499   3.456  11.590   0.973  0.1923 -0.0411  0.1210
    1W        W53500  18.765   2.103   0.613  0.2118 -0.3731  0.0665
    1W        W53501   4.595  22.446   0.938  0.1057  0.0885  0.1829
    1W        W53502  25.068  21.688   9.399 -0.1812  0.1556  0.1954
    1W        W53503   6.805  25.962   0.263 -0.0505  0.0156 -0.2492
    1W        W53504  29.729  15.597   2.642  0.2801  0.2866  0.1471
    1W        W53505  26.675  20.900   2.428 -0.1371  0.1037  0.1880
    1W        W53506  18.842   4.214   8.283 -0.0084 -0.3364 -0.0033
    1W        W53507   7.974  14.228   9.099  0.0584 -0.1372  0.3130
    1W        W53508  21.375  15.280   7.001  0.1177 -0.0699 -0.0440
    1W        W53509  20.977  23.047   8.175 -0.0619 -0.2570 -0.1521
    1W        W53510  24.865  18.604   2.273 -0.2670  0.0716  0.1326
    1W        W53511  29.287  19.491   1.344 -0.0849 -0.0493 -0.1107
    1W        W53512  15.400  14.074   7.479 -0.0406 -0.0620  0.2190
    1W        W53513  19.730  26.221   9.147 -0.0105  0.1984  0.0906
    1W        W53514  21.271  26.827   2.537  0.1435  0.0444 -0.0548
    1W        W53515  26.626  14.204   7.216 -0.0654 -0.1392  0.1615
    1W        W53516  23.864  28.351   1.664 -0.1589 -0.0312  0.1963
    1W        W53517   3.069   7.449   0.802 -0.1897  0.2358 -0.2567
    1W        W53518  19.801  22.183   0.856  0.1271  0.1660  0.0122
    1W        W53519  22.812   4.626   2.076 -0.0275 -0.1557 -0.4013
    1W        W53520   4.981  24.462   0.999 -0.0589  0.1352 -0.0590
    1W        W53521  14.220   3.716   6.866 -0.1155 -0.1749  0.0907
    1W        W53522  25.196  27.086   7.757 -0.0756 -0.1813 -0.0171
    1W        W53523  16.269  18.297   8.834  0.2110  0.2863 -0.0776
    1W        W53524   6.070  27.583   9.323 -0.0860  0.1442  0.0381
    1W        W53525  16.997  23.741   1.121  0.3186  0.2137 -0.0842
    1W        W53526   8.580  19.493   8.517  0.1723 -0.0731  0.0315
    1W        W53527   4.439   8.024   1.275 -0.4008  0.0407  0.0728
    1W        W53528  20.448  11.804   0.532  0.0903 -0.3582  0.1633
    1W        W53529  19.710  23.629   9.402 -0.1904 -0.1035  0.2971
    1W        W53530   3.225  12.250   0.284 -0.2034  0.0731 -0.2079
    1W        W53531  15.206  14.708   0.320  0.0045 -0.1790  0.1953
    1W        W53532  18.320  17.245   1.635 -0.2061  0.0402 -0.0357
    1W        W53533  21.454   9.816   1.461  0.1682 -0.0089 -0.1068
    1W        W53534   5.431  28.216   2.196 -0.0051 -0.0802 -0.1806
    1W        W53535   2.364   3.590   7.110  0.0785  0.0010  0.1886
    1W        W53536  23.899   7.949   9.335 -0.2244  0.0449  0.0264
    1W        W53537  18.885  28.213   1.700  0.2814 -0.3360  0.2510
    1W        W53538   4.604  14.404   8.907  0.1539 -0.0562 -0.1248
    1W        W53539   0.850  16.071   1.580 -0.1004  0.0385  0.0878
    1W        W53540   0.878   1.619   8.244 -0.0517 -0.3420  0.3269
    1W        W53541   3.076  22.344   1.047 -0.1593 -0.0380  0.0726
    1W        W53542  28.164  10.414   0.638 -0.0137  0.4388 -0.0535
    1W        W53543   3.171  26.354   6.476  0.2782  0.0474 -0.1951
    1W        W53544  24.366  27.793   8.246  0.0063 -0.1002 -0.1340
    1W        W53545  18.101   2.338   2.296  0.1755  0.0111  0.0365
    1W        W53546  24.839  22.337   7.433  0.0935 -0.0511 -0.2492
    1W        W53547   9.524  14.194   2.927  0.0979  0.2507  0.2501
    1W        W53548  29.364  24.817   1.321  0.0503 -0.2192  0.1407
    1W        W53549  15.434   1.561   7.251 -0.0476  0.4287  0.0255
    1W        W53550  13.552  14.317   0.740 -0.0902  0.3413  0.2859
    1W        W53551   2.217   1.282   2.504 -0.0525  0.0718  0.2474
    1W        W53552  21.033   7.081   7.389 -0.1979 -0.0122 -0.1142
    1W        W53553  16.186  10.096   9.379 -0.1699 -0.1309 -0.1914
    1W        W53554   5.681  25.253   1.328  0.0488 -0.0103  0.1085
    1W        W53555   6.572  20.105   1.890  0.1781  0.1719 -0.2733
    1W        W53556  10.378  28.577   8.847 -0.0147 -0.1371 -0.0068
    1W        W53557   0.798  28.841   1.110  0.0973 -0.0244  0.0545
    1W        W53558  11.645   4.146   9.405  0.1090  0.0615 -0.2145
    1W        W53559  11.400  20.932   0.733 -0.1660  0.0287 -0.3608
    1W        W53560   3.781  25.432   7.117 -0.3354 -0.1032  0.1233
    1W        W53561  24.752   0.046   8.255  0.0864  0.0431  0.1986
    1W        W53562  27.131  14.102   8.145 -0.1508  0.0210 -0.1998
    1W        W53563  23.661  27.288   1.305  0.1072 -0.2801  0.0354
    1W        W53564   4.751   0.252   0.123 -0.0887  0.0369  0.1304
    1W        W53565  28.711   8.720   8.674  0.0920  0.0129 -0.0825
    1W        W53566   4.917  14.067   0.788 -0.0530 -0.0102 -0.0779
    1W        W53567  16.194  23.472   2.069 -0.0327 -0.1085  0.2397
    1W        W53568  28.858  28.688   7.633 -0.0347 -0.1160 -0.0205
    1W        W53569  18.935  25.665   3.573 -0.0385  0.3241 -0.0602
    1W        W53570  20.216  15.780   7.108 -0.1730 -0.1318 -0.1144
    1W        W53571  26.417   4.723   7.764  0.0787  0.2796  0.0407
    1W        W53572  10.471   1.665   0.502 -0.0071  0.1127 -0.1587
    1W        W53573  11.973   5.294   7.186  0.0455  0.1200 -0.0321
    1W        W53574  21.690   8.133   0.459 -0.0662  0.1054  0.0263
    1W        W53575  22.488   4.964   0.488 -0.0547 -0.4993 -0.0670
    1W        W53576  22.573  27.582   9.167 -0.0759 -0.2388 -0.0307
    1W        W53577  10.087  29.492   3.343  0.1488 -0.0245  0.2304
    1W        W53578   6.008  19.122   7.948 -0.0554 -0.1615 -0.1650
    1W        W53579   3.364   5.926   0.790  0.1693  0.0109 -0.1285
    1W        W53580  29.283   7.142   7.524  0.0253 -0.0254  0.0319
    1W        W53581   7.488  20.100   9.393 -0.0945 -0.1163 -0.1234
    1W        W53582  27.715   9.962   7.529  0.1715 -0.0775  0.2981
    1W        W53583  26.775  18.111   6.812  0.0741  0.2235  0.1159
    1W        W53584  15.018  22.388   0.710 -0.1562 -0.0446 -0.3266
    1W        W53585  28.791  13.443   6.121 -0.1615 -0.0115 -0.0557
    1W        W53586  20.609  15.193   8.136 -0.2637  0.3028  0.1068
    1W        W53587  21.654  23.688   2.201 -0.0172  0.0633  0.2964
    1W        W53588   4.026   7.475   0.144  0.1260  0.0950 -0.1556
    1W        W53589  13.115  18.878   7.773 -0.1933 -0.2774 -0.0845
    1W        W53590  15.009   4.628   2.455 -0.1797 -0.1838 -0.1114
    1W        W53591  25.468   7.604   6.350  0.1506  0.1861  0.1164
    1W        W53592   1.413   5.250   0.506 -0.1518 -0.0512  0.0437
    1W        W53593  12.512  25.897   3.252  0.1217  0.0675 -0.1461
    1W        W53594  24.774  14.108   8.781 -0.3550  0.1585 -0.0595
    1W        W53595  12.575   8.812   8.509 -0.2516  0.0470 -0.1890
    1W        W53596   5.342   3.533   2.361 -0.0344  0.0220 -0.0872
    1W        W53597   5.716  14.994   1.522  0.0576 -0.0094 -0.0249
    1W        W53598  15.274   7.273   0.182  0.1130 -0.2366 -0.0175
    1W        W53599  10.970  28.723   3.013 -0.0737 -0.1779  0.2349
    1W        W53600  26.594   6.367   1.075 -0.1696  0.0877  0.1954
    1W        W53601   4.756  29.509   3.332  0.2122 -0.0548 -0.0814
    1W        W53602   7.446  15.528   6.754  0.1481  0.2284 -0.0398
    1W        W53603  10.548  21.268   8.542  0.2669  0.1223  0.3378
    1W        W53604  23.547   9.993   2.609 -0.2271 -0.0054 -0.2656
    1W        W53605  14.087  14.861   1.480  0.0036 -0.1886 -0.0989
    1W        W53606  14.626  27.815   0.617  0.0517 -0.1181  0.1057
    1W        W53607  10.974  29.426   0.547 -0.0956 -0.0127 -0.2164
    1W        W53608  19.174  26.400   6.858 -0.1013  0.2821  0.1674
    1W        W53609  21.180  12.775   6.259 -0.2724 -0.3536 -0.3072
    1W        W53610  14.118  25.353   7.519  0.0602 -0.0592  0.3217
    1W        W53611   2.422   9.936   0.247  0.1111 -0.2388 -0.1684
    1W        W53612  16.730  23.551   0.228 -0.1760  0.1600 -0.1099
    1W        W53613   0.542  25.162   2.060 -0.4485 -0.1056  0.1049
    1W        W53614  26.942  20.526   2.621 -0.0032  0.1104  0.3777
    1W        W53615   7.401  10.722   6.836  0.0098 -0.1180 -0.2691
    1W        W53616  23.374  21.326   9.184  0.0694  0.0733  0.1819
    1W        W53617  23.565  19.796   8.178 -0.0335 -0.1785  0.1003
    1W        W53618  17.999  24.348   7.659  0.0811 -0.0661  0.2106
    1W        W53619  26.650  24.510   8.074  0.3262  0.0722  0.0210
    1W        W53620  16.931  21.864   2.479 -0.2377 -0.1666 -0.2746
    1W        W53621  10.340   5.706   8.786  0.3057 -0.1937 -0.1224
    1W        W53622  19.787   7.057   7.419  0.1804 -0.0869 -0.0334
    1W        W53623   9.070  25.385   0.103  0.0947 -0.1306  0.1082
    1W        W53624   8.389  12.296   0.438 -0.1573 -0.0774 -0.1554
    1W        W53625   4.486   6.752   0.670  0.1305 -0.1725 -0.0280
    1W        W53626   7.503  16.445   8.912 -0.0546 -0.0560  0.0161
    1W        W53627   7.897  24.332   5.825  0.1088  0.0598 -0.2377
    1W        W53628  18.553  18.663   0.135  0.3035 -0.1233 -0.3463
    1W        W53629  17.005   6.696   6.759 -0.0031 -0.1427 -0.1742
    1W        W53630  26.304  28.256   8.508 -0.0932 -0.3385 -0.3005
    1W        W53631   7.984  21.789   0.332  0.1951  0.0581 -0.0012
    1W        W53632   2.306  22.548   6.143  0.0381 -0.2187  0.0905
    1W        W53633  13.524   3.761   8.708 -0.0903 -0.0121 -0.0585
    1W        W53634  21.239   9.969   6.234 -0.0026 -0.2102 -0.2940
    1W        W53635  24.844  26.132   0.798  0.0086 -0.1095 -0.0100
    1W        W53636   5.976  22.368   0.156 -0.2111 -0.0237  0.1211
    1W        W53637  26.122  21.686   2.458 -0.0136 -0.0555  0.0836
    1W        W53638  13.764  22.595   6.536  0.1111  0.3196  0.1349
    1W        W53639  11.864  17.931   7.465  0.4718 -0.3395 -0.2184
    1W        W53640  24.175  12.074   7.470 -0.0934  0.0190 -0.1156
    1W        W53641  18.414   1.062   8.236 -0.0347 -0.1313  0.0648
    1W        W53642  21.038  26.798   0.060  0.1095 -0.2832  0.2424
    1W        W53643  26.873  20.321   7.914  0.0385 -0.0661  0.0309
    1W        W53644  19.404  20.147   2.209  0.1441  0.0443  0.0404
    1W        W53645   5.125   5.257   3.659 -0.1522  0.3115 -0.2637
    1W        W53646   0.532  20.162   6.588 -0.0505 -0.2544  0.1495
    1W        W53647   2.738  26.705   2.676 -0.2209  0.0255 -0.0879
    1W        W53648   1.299   3.945   7.422  0.0690 -0.0347  0.1451
    1W        W53649   8.672  17.190   1.296  0.2423  0.0213  0.2666
    1W        W53650   8.829  18.387   6.428 -0.2346  0.4065 -0.0019
    1W        W53651  27.370   4.922   0.159  0.0652 -0.0254  0.0199
    1W        W53652  19.156  19.731   2.048 -0.2282  0.1865  0.0128
    1W        W53653  28.079   1.276   3.329 -0.0833  0.0163 -0.1034
    1W        W53654  27.497  13.510   0.827  0.2495  0.0349 -0.2097
    1W        W53655  22.230  25.322   0.260  0.0235  0.1020  0.0052
    1W        W53656   0.670  20.478   9.284 -0.0590  0.0671 -0.3044
    1W        W53657  10.843  29.058   2.133  0.1140 -0.0854 -0.0147
    1W        W53658  23.682  21.534   8.220  0.1962  0.0983  0.0253
    1W        W53659   3.673   9.886   1.396  0.0167 -0.0306  0.2121
    1W        W53660  28.080   8.943   1.528 -0.0348  0.2278 -0.1125
    1W        W53661  28.188   6.927   9.392 -0.1455  0.1441  0.4542
    1W        W53662  12.915  23.222   7.283 -0.1086  0.0273  0.2618
    1W        W53663   9.276   4.976   2.360  0.0090 -0.4683  0.1136
    1W        W53664   7.360  17.337   7.954 -0.0690  0.0059 -0.0794
    1W        W53665  19.447  15.535   1.675  0.2939  0.2615  0.3039
    1W        W53666   6.698  20.750   1.372 -0.2225  0.1546 -0.1656
    1W        W53667   6.140   8.324   3.131  0.0498 -0.1922  0.0450
    1W        W53668   8.165  12.098   0.008 -0.0484  0.0723  0.1563
    1W        W53669   5.718  11.119   8.372  0.4874  0.1572 -0.3263
    1W        W53670  24.783  22.371   2.612 -0.3076 -0.2112 -0.0754
    1W        W53671  28.949  23.781   7.241 -0.1641 -0.1509  0.0144
    1W        W53672  15.480  24.569   7.436 -0.0476 -0.2033  0.0152
    1W        W53673  27.617  19.345   9.133 -0.2288  0.0437 -0.2638
    1W        W53674   6.481   3.935   2.220 -0.1333 -0.2053 -0.0384
    1W        W53675   6.392  29.101   7.643 -0.0780  0.2717 -0.0314
    1W        W53676   4.011   6.144   7.623 -0.1416  0.2459 -0.2031
    1W        W53677   6.687   7.910   3.193 -0.0623 -0.0127 -0.1564
    1W        W53678  16.616   5.731   6.705 -0.0373 -0.2499 -0.1595
    1W        W53679  24.700  10.213   7.962 -0.0768 -0.0423  0.1200
    1W        W53680  24.335  22.622   1.625  0.1132  0.0091 -0.1869
    1W        W53681   7.622   5.297   2.515  0.1688  0.2208  0.0490
    1W        W53682   4.320  25.103   5.719 -0.0078 -0.1564  0.1001
    1W        W53683  26.894  26.847   7.047 -0.2426  0.1028  0.0409
    1W        W53684  17.354  14.659   1.599 -0.5385 -0.1020 -0.0932
    1W        W53685  18.949   7.392   0.584  0.1554 -0.2134 -0.0103
    1W        W53686  11.457  12.718   2.458  0.1007 -0.3851 -0.2553
    1W        W53687  14.421   5.502   9.147 -0.1909 -0.0897 -0.0933
    1W        W53688  18.949  24.401   2.305 -0.1578  0.2023 -0.1294
    1W        W53689  16.146   3.729   8.500  0.3244  0.0208  0.0162
    1W        W53690   9.945  23.133   1.839 -0.3208 -0.3109  0.0215
    1W        W53691  14.553  10.585   0.145  0.0288 -0.1774 -0.2458
    1W        W53692  10.458   3.930   3.560  0.0281  0.0234  0.3215
    1W        W53693  23.849  26.833   2.769 -0.2251 -0.1822  0.0333
    1W        W53694  17.105  28.506   7.050 -0.2994  0.0322  0.2333
    1W        W53695  19.022  14.631   8.447  0.1823 -0.1119  0.1086
    1W        W53696  10.597   3.421   2.805  0.2366  0.2795  0.1247
    1W        W53697  10.800  24.611   8.639 -0.0361  0.0373 -0.1309
    1W        W53698  13.078  16.361   0.814  0.1424  0.0615  0.0286
    1W        W53699  12.778  20.453   2.142 -0.1901  0.0970  0.1491
    1W        W53700  25.409   5.526   7.196  0.1009  0.0865  0.0489
    1W        W53701   2.457  15.463   7.231 -0.1194 -0.0117  0.1106
    1W        W53702  18.382  28.468   2.963  0.0389 -0.0037 -0.1964
    1W        W53703   4.756  23.693   2.241  0.1018 -0.1879  0.0563
    1W        W53704   7.507   8.371   2.965  0.1878 -0.1099  0.1449
    1W        W53705  16.735  16.592   8.293 -0.2187 -0.0834  0.0130
    1W        W53706   8.157   1.894   7.609  0.2015  0.0482 -0.1781
    1W        W53707  23.664  13.934   7.647  0.2180 -0.0649 -0.0664
    1W        W53708  23.552   8.628   2.593 -0.3862  0.1706  0.0583
    1W        W53709  20.379  26.336   6.449  0.4465  0.0214 -0.1302
    1W        W53710  25.159  15.659   6.914  0.1967  0.1145  0.1641
    1W        W53711   3.089   0.959   0.737  0.2258 -0.0311 -0.0887
    1W        W53712  27.023  28.944   8.382 -0.1148  0.0994 -0.1791
    1W        W53713  16.017   4.745   1.591 -0.2659  0.0075 -0.0259
    1W        W53714  19.285  26.634   1.637 -0.0980  0.0792 -0.1184
    1W        W53715  13.374   0.656   7.704  0.1828  0.0247  0.0764
    1W        W53716  13.991   2.247   9.290 -0.2818 -0.0323  0.0939
    1W        W53717  10.788  10.976   9.335 -0.1091 -0.0800 -0.1380
    1W        W53718  17.035  18.796   9.172 -0.2958  0.1835 -0.2296
    1W        W53719   5.688   3.620   7.210 -0.0407  0.3075  0.3204
    1W        W53720   1.773   9.822   8.894  0.1318 -0.2837 -0.4487
    1W        W53721  21.129  25.352   2.142  0.0176  0.0056  0.1955
    1W        W53722  17.242  24.950   8.837 -0.5175  0.1975  0.2313
    1W        W53723   5.343   8.751   7.967  0.0135 -0.1757  0.0341
    1W        W53724   6.929   3.222   7.600  0.3326  0.3282 -0.1980
    1W        W53725   4.457   1.753   2.760 -0.1911 -0.0870  0.0809
    1W        W53726   1.866   2.114   6.785 -0.5004  0.0851  0.1765
    1W        W53727  10.451  26.062   0.264 -0.0173 -0.0499  0.3782
    1W        W53728  16.210  10.698   8.219 -0.0690  0.2500  0.0089
    1W        W53729   7.648   7.882   1.170 -0.1568  0.2554  0.1054
    1W        W53730  24.665   8.796   0.374  0.0734  0.0013 -0.0642
    1W        W53731   2.870  14.558   6.997 -0.3115  0.1825 -0.0263
    1W        W53732  20.082  24.450   9.098 -0.5211 -0.2966 -0.0819
    1W        W53733  11.257   4.941   8.025 -0.0313 -0.1034 -0.3083
    1W        W53734  10.433  11.507   8.828 -0.4578 -0.1149  0.1931
    1W        W53735   8.952   5.632   1.794 -0.1183  0.0055 -0.1649
    1W        W53736  24.504   7.855   6.918  0.2167  0.3278 -0.0817
    1W        W53737  10.248  24.161   1.528  0.1834 -0.0777 -0.1194
    1W        W53738   6.583   9.634   8.230 -0.2496  0.0979 -0.1782
    1W        W53739  10.940  27.427   1.499 -0.4951 -0.0139  0.1518
    1W        W53740   8.807  28.189   9.188 -0.3609 -0.1696 -0.1876
    1W        W53741  13.767  11.217   7.654  0.0074 -0.1346  0.0284
    1W        W53742   5.545   5.684   1.347  0.0385  0.1588  0.0449
    1W        W53743   5.398   2.204   1.726  0.3128  0.0344 -0.0178
    1W        W53744   8.311   7.525   2.922  0.1914 -0.3746  0.0350
    1W        W53745  24.803  18.372   1.314  0.0214 -0.0078 -0.1066
    1W        W53746  10.528   9.105   2.041  0.0552 -0.0021 -0.1725
    1W        W53747  11.612   2.358   0.320  0.2014  0.1340  0.2104
    1W        W53748  13.531  13.582   1.480  0.0281 -0.3377 -0.4515
    1W        W53749  13.506  17.315   1.599  0.2217 -0.0946  0.1642
    1W        W53750  10.624  21.700   9.329 -0.2208 -0.2259 -0.1308
    1W        W53751  22.786  15.964   6.640  0.2498  0.2432  0.1379
    1W        W53752  12.743   6.499   7.592  0.0217 -0.1301  0.0945
    1W        W53753  20.645  25.021   9.444  0.1605 -0.1422  0.0736
    1W        W53754  18.728   9.806   1.494 -0.1936  0.0406  0.0685
    1W        W53755   4.046  26.084   5.897  0.0755  0.0854 -0.1853
    1W        W53756   5.661   8.096   9.098  0.0656 -0.0776 -0.0700
    1W        W53757  18.268  23.770   1.842 -0.0035 -0.1530 -0.0350
    1W        W53758  18.352  29.466   0.301 -0.1313 -0.0816 -0.3899
    1W        W53759   1.800  23.786   0.927 -0.1433 -0.2985 -0.0500
    1W        W53760  11.346  19.266   6.232 -0.0697  0.0387  0.2201
    1W        W53761   8.931  25.895   6.241 -0.1879  0.1824  0.1177
    1W        W53762  16.257  16.838   8.197  0.1158 -0.2114  0.2011
    1W        W53763   7.928  19.033   0.664 -0.0856  0.1325  0.2512
    1W        W53764   3.385  13.135   1.103  0.0433  0.2450  0.2978
    1W        W53765   2.614  21.746   5.524 -0.0596 -0.0464 -0.3959
    1W        W53766   7.902  14.400   7.901  0.0873  0.2261 -0.1776
    1W        W53767  12.875  23.082   7.728 -0.1137  0.2527 -0.1466
    1W        W53768   2.179  24.849   0.594  0.3866 -0.0036 -0.0901
    1W        W53769  19.502   3.860   0.422 -0.0826 -0.1797 -0.1213
    1W        W53770   0.670  15.417   0.553 -0.0607  0.1619 -0.2138
    1W        W53771  16.495   2.954   8.457  0.1157 -0.3644 -0.1443
    1W        W53772   8.268  19.992   0.759  0.1300  0.0817 -0.0642
    1W        W53773   6.765   1.536   2.639 -0.2118 -0.1979 -0.1932
    1W        W53774  21.440  20.911   2.306 -0.0204 -0.0607  0.1635
    1W        W53775   5.393  21.238   0.695  0.1479  0.0578 -0.1834
    1W        W53776  17.005  13.425   0.430  0.1640 -0.2002  0.2314
    1W        W53777  11.736   5.062   3.754  0.0407  0.0886 -0.1470
    1W        W53778  11.583  20.047   1.389 -0.0335 -0.0679 -0.2247
    1W        W53779  19.120  29.764   2.199 -0.0928  0.1200 -0.3963
    1W        W53780  28.627  17.060   6.333 -0.0511 -0.0960 -0.1427
    1W        W53781   5.149  29.599   9.271 -0.0039 -0.1121 -0.0725
    1W        W53782   3.711   3.057   2.664 -0.0425 -0.0687 -0.1560
    1W        W53783  13.939   3.316   9.174  0.2467  0.0252  0.2993
    1W        W53784   7.181   7.998   3.231 -0.1803 -0.0976  0.1163
    1W        W53785   3.214  16.555   1.673 -0.0586  0.1060 -0.2277
    1W        W53786   1.183  22.931   0.058 -0.7356  0.0837  0.2971
    1W        W53787   5.051  14.736   7.711 -0.1865  0.1997 -0.2259
    1W        W53788  21.348  27.324   6.544  0.1010  0.1915  0.1931
    1W        W53789  26.405  15.915   6.489 -0.1534  0.2432 -0.2674
    1W        W53790  29.153   0.273   7.142  0.0379 -0.3441  0.0056
    1W        W53791  10.822  27.285   8.733 -0.1383 -0.1325  0.2658
    1W        W53792  11.553  24.337   1.331  0.1681  0.1768 -0.1121
    1W        W53793   5.553  20.947   7.794  0.0559  0.3407 -0.0773
    1W        W53794   8.988  13.580   8.087  0.2789  0.1458 -0.1480
    1W        W53795  18.775   8.139   8.546 -0.2199 -0.1563  0.1023
    1W        W53796  18.295  18.027   7.629 -0.0288  0.0729 -0.3658
    1W        W53797  28.733  21.756   8.508  0.4044 -0.2076 -0.1799
    1W        W53798  18.744  25.911   7.533  0.2155 -0.1174 -0.0588
    1W        W53799   3.614   5.279   3.269 -0.0732  0.2840 -0.2041
    1W        W53800  13.838   3.349   7.202 -0.1955 -0.0030 -0.4375
    1W        W53801  27.584  12.882   0.704  0.3777 -0.1893 -0.1586
    1W        W53802  21.923  19.553   9.158 -0.1351 -0.1384  0.1653
    1W        W53803  11.127  14.080   0.789 -0.0788 -0.2956  0.0618
    1W        W53804  19.691   0.208   9.303  0.2121 -0.2921  0.2996
    1W        W53805   7.976  25.170   1.593  0.0438 -0.0043 -0.0091
    1W        W53806  29.116   7.793   0.569  0.0089 -0.0029  0.2208
    1W        W53807  11.179  16.563   7.700 -0.2837 -0.0053 -0.1535
    1W        W53808   2.885   9.949   7.077 -0.2637  0.1599 -0.0530
    1W        W53809   8.717  19.623   9.020  0.0182  0.0026  0.1930
    1W        W53810  10.165  18.109   7.325 -0.0865  0.2453  0.0928
    1W        W53811  18.222   2.816   0.807 -0.0428  0.1003  0.2531
    1W        W53812  20.879  15.336   7.156 -0.1622 -0.0024 -0.0566
    1W        W53813  10.870   0.718   1.326  0.2549  0.1854 -0.1351
    1W        W53814  17.675   6.728   1.635  0.1033 -0.1723  0.3532
    1W        W53815  22.449  11.995   9.167  0.3169 -0.0020 -0.1489
    1W        W53816  24.756  10.986   8.138  0.2629 -0.0619 -0.0558
    1W        W53817  28.589  27.895   7.224 -0.2437 -0.0541  0.0290
    1W        W53818   3.309  23.490   6.656  0.0430  0.0156  0.2346
    1W        W53819  20.830   3.360   9.088  0.2704 -0.2737  0.0235
    1W        W53820   6.446  20.976   1.747  0.1166  0.1258  0.0498
    1W        W53821   9.800  23.101   6.675  0.0210 -0.1340 -0.0578
    1W        W53822   2.037   1.293   7.417 -0.0831  0.1298 -0.0277
    1W        W53823   0.832   4.492   1.959 -0.1522  0.0847  0.0150
    1W        W53824  20.402  21.135   1.440 -0.0960 -0.2123  0.0547
    1W        W53825   9.375   5.129   8.903  0.2911 -0.0208 -0.0613
    1W        W53826   0.450   9.426   3.241  0.2217  0.0729 -0.1404
    1W        W53827  11.015  19.037   7.842  0.1806 -0.1390  0.0840
    1W        W53828  26.564  26.827   1.215 -0.1942  0.0358  0.0079
    1W        W53829  12.053   2.621   2.987  0.1253 -0.0745  0.1969
    1W        W53830   2.997  11.587   2.367 -0.0116 -0.2861 -0.0608
    1W        W53831  15.611   0.572   2.657  0.0110  0.0920 -0.0736
    1W        W53832   3.404  25.075   0.638 -0.0245 -0.1305 -0.0547
    1W        W53833   2.442   2.766   2.878 -0.1039  0.0643  0.0136
    1W        W53834  13.567  11.104   7.178  0.2939  0.0257  0.2380
    1W        W53835  28.915  21.420   5.957  0.2601  0.1487  0.2222
    1W        W53836  26.796   3.794   2.401  0.2118 -0.1573  0.2957
    1W        W53837   8.589   3.561   8.158  0.1646  0.0462 -0.1245
    1W        W53838  18.357   4.855   2.914  0.0625  0.1398  0.2679
    1W        W53839  16.034  20.715   0.170  0.0927 -0.1237  0.0057
    1W        W53840  24.492  14.307   0.741 -0.0032 -0.0692  0.0654
    1W        W53841  17.915  16.614   0.750 -0.0981  0.2068 -0.1226
    1W        W53842  15.616   9.364   0.250 -0.1304 -0.1754  0.2107
    1W        W53843  24.138   8.832   7.236  0.2795  0.0716  0.3915
    1W        W53844   3.634   6.011   3.567  0.2812 -0.1550  0.0909
    1W        W53845   8.101  17.990   9.103  0.0740 -0.1280 -0.0820
    1W        W53846   6.959  23.700   0.439 -0.3609 -0.3625  0.0981
    1W        W53847  26.991   6.298   0.303 -0.0770 -0.1797 -0.1779
    1W        W53848  11.442  19.219   1.790  0.0771  0.1443 -0.0296
    1W        W53849  20.982  16.105   8.630  0.0205 -0.0655  0.3177
    1W        W53850  23.046  13.662   0.254 -0.3580  0.0290 -0.2217
    1W        W53851  27.573  17.384   7.594 -0.0011 -0.2288 -0.2270
    1W        W53852   2.632   1.525   2.042 -0.0659  0.2392 -0.0522
    1W        W53853  12.080   8.295   9.155 -0.0298  0.2328  0.0137
    1W        W53854  15.674  23.273   7.434 -0.2908 -0.1298 -0.1697
    1W        W53855  28.943   0.706   8.422  0.1044 -0.0612  0.0319
    1W        W53856  17.071  25.263   3.206 -0.2299 -0.1465  0.1560
    1W        W53857  15.841  11.222   0.868 -0.0469 -0.2228 -0.1387
    1W        W53858   1.953   6.993   7.208  0.1206  0.2551  0.3095
    1W        W53859   2.730  12.352   7.864  0.0393 -0.0441  0.1578
    1W        W53860   7.496  13.796   7.296 -0.1741 -0.4050  0.2312
    1W        W53861  23.374  27.550   9.400  0.1074  0.0411  0.1004
    1W        W53862  18.850   5.663   1.765 -0.0244 -0.0603  0.1459
    1W        W53863  15.978   2.540   7.376  0.0669  0.0346 -0.0021
    1W        W53864  15.935   2.878   6.863 -0.1545  0.4072  0.0273
    1W        W53865  12.224  18.627   1.801 -0.0106 -0.1114 -0.3535
    1W        W53866  16.172  24.600   2.849 -0.2635 -0.1765  0.0970
    1W        W53867  18.034   1.406   1.872 -0.1306  0.2882 -0.2520
    1W        W53868  21.733   4.412   8.294  0.0395  0.1276 -0.0664
    1W        W53869  25.317  20.078   1.804  0.0418 -0.0230 -0.1489
    1W        W53870   6.556   0.243   2.878 -0.2446 -0.0285  0.1432
    1W        W53871  21.178  22.624   9.368 -0.1141 -0.0104  0.0711
    1W        W53872   6.442  17.811   9.451  0.0325  0.1310  0.0636
    1W        W53873   1.621   6.065   6.961  0.2070  0.3779 -0.1834
    1W        W53874  15.104   4.228   3.163  0.2324  0.1338  0.2390
    1W        W53875  26.890  28.101   8.402 -0.3563  0.2539  0.5414
    1W        W53876  14.793  19.778   1.316 -0.0918 -0.0895 -0.1434
    1W        W53877   3.097  10.276   7.361  0.2559 -0.0845 -0.1639
    1W        W53878  28.556   0.160   1.201 -0.3103 -0.0727  0.0184
    1W        W53879  12.006  15.011   1.241  0.2553  0.4232 -0.0982
    1W        W53880  19.852  28.509   6.425 -0.1794 -0.1500 -0.3723
    1W        W53881  17.041  24.373   0.295  0.2727 -0.1869  0.1418
    1W        W53882  12.800   8.304   3.061 -0.0371  0.1652  0.1016
    1W        W53883   1.537  19.355   6.015  0.2147 -0.0787  0.1905
    1W        W53884   8.776  26.877   0.748 -0.0643  0.2548 -0.0865
    1W        W53885  11.275   1.534   3.323  0.1029 -0.0470  0.1644
    1W        W53886  24.536   5.485   7.720  0.0821 -0.2518  0.0867
    1W        W53887  14.468  18.826   8.882  0.2882 -0.1716 -0.1720
    1W        W53888   6.046  12.057   2.683  0.1081  0.0967 -0.3502
    1W        W53889  13.415  25.184   0.216  0.0144 -0.2573  0.2150
    1W        W53890  22.493  15.470   0.608 -0.1330 -0.2444 -0.0144
    1W        W53891   6.270  12.087   1.571 -0.2011  0.0474  0.1363
    1W        W53892  25.519  13.598   0.797 -0.3386  0.1327  0.0674
    1W        W53893  23.753  21.231   7.341 -0.1214 -0.0493  0.4609
    1W        W53894  17.080  26.681   1.794 -0.1530  0.0513  0.1439
    1W        W53895  19.280   9.259   0.333  0.3311  0.3102 -0.2273
    1W        W53896   2.346  25.449   1.455  0.1963  0.1356 -0.1793
    1W        W53897  23.228  23.073   7.604  0.1983  0.2948 -0.0303
    1W        W53898   6.718  28.371   7.100 -0.1511  0.0790  0.1451
    1W        W53899   5.071   6.748   9.320  0.3798 -0.2091 -0.0318
    1W        W53900  11.405  23.803   7.647  0.0764 -0.4950 -0.0048
    1W        W53901   4.968  21.650   6.058 -0.0069 -0.0046 -0.0426
    1W        W53902   6.770  16.758   6.552  0.2888 -0.0320  0.2091
    1W        W53903  13.151  24.464   1.499  0.0871 -0.3178 -0.1380
    1W        W53904   1.489   6.125   8.016  0.5465 -0.2457 -0.0941
    1W        W53905   4.927  24.873   0.562  0.2061  0.0691  0.1038
    1W        W53906  19.240   7.493   0.091 -0.1646 -0.3340 -0.3780
    1W        W53907  12.939  16.420   0.121  0.0280  0.0784  0.0080
    1W        W53908   4.121  21.280   2.107  0.0884  0.0072  0.5141
    1W        W53909  20.421   9.282   9.070 -0.0778  0.1386  0.4480
    1W        W53910   3.185   5.319   9.416 -0.0897 -0.2063 -0.1789
    1W        W53911   7.829   9.134   2.673  0.0745  0.1538  0.1720
    1W        W53912  22.805   6.363   2.555  0.0729  0.2809  0.1202
    1W        W53913  24.775   8.257   6.725  0.1631  0.1239 -0.0049
    1W        W53914   1.039  19.559   0.900  0.0207  0.2072 -0.1350
    1W        W53915  15.303  11.797   7.547  0.1072  0.2242  0.0505
    1W        W53916  15.185   4.631   8.815  0.1314 -0.0131  0.2468
    1W        W53917  12.980  28.796   0.113  0.0471 -0.0170  0.1119
    1W        W53918  22.716   2.345   3.066 -0.1095  0.0377  0.1720
    1W        W53919  18.806   9.307   6.744  0.2045  0.1199  0.0527
    1W        W53920   1.311  29.454   0.556  0.1443 -0.1760 -0.3737
    1W        W53921  14.355  19.188   0.202 -0.2421  0.1759 -0.3324
    1W        W53922  16.137  20.706   7.611 -0.0238 -0.1585 -0.1778
    1W        W53923  24.052  28.623   2.632 -0.1732  0.1321  0.0706
    1W        W53924  15.603   0.339   0.077 -0.0728  0.3580 -0.0566
    1W        W53925  25.003  26.089   9.164 -0.0866 -0.1880  0.0537
    1W        W53926  26.488  25.282   0.158  0.1917 -0.1073  0.0175
    1W        W53927   0.688   0.640   6.625 -0.0796  0.1238  0.1116
    1W        W53928   1.451   6.383   8.517  0.0311  0.0376 -0.1256
    1W        W53929   7.159  16.545   6.898  0.1143 -0.2063 -0.0995
    1W        W53930   5.283  28.676   7.096  0.0142  0.3228 -0.1076
    1W        W53931   0.670  20.133   2.418  0.0736 -0.0709 -0.0740
    1W        W53932  12.042  21.192   7.194  0.0563  0.0239  0.0763
    1W        W53933   0.173  12.401   1.305  0.1078 -0.0298  0.2517
    1W        W53934   0.507  10.454   8.495 -0.0666  0.0095 -0.1758
    1W        W53935  10.471  10.982   8.986 -0.1360  0.0540 -0.5210
    1W        W53936  14.673  25.060   2.053 -0.1585 -0.1822 -0.2129
    1W        W53937  27.641  28.376   1.863  0.1223 -0.0631 -0.1952
    1W        W53938   8.192  22.057   2.074 -0.0792 -0.1687  0.0553
    1W        W53939  20.241  14.355   0.341  0.0893  0.1277 -0.1488
    1W        W53940  10.392   4.087   0.383 -0.0631  0.3568  0.1141
    1W        W53941  12.917   1.923   8.892  0.0647 -0.0879 -0.1474
    1W        W53942  19.129   1.736   9.313  0.0218  0.1187  0.0205
    1W        W53943   1.123  24.193   1.475 -0.1163  0.2243  0.2111
    1W        W53944   2.885   8.892   1.033  0.5076 -0.1772  0.2605
    1W        W53945  14.327   9.685   9.417  0.0413 -0.0052  0.2926
    1W        W53946  23.156   7.544   9.375  0.3320 -0.3454  0.0685
    1W        W53947   6.580  14.546   6.964  0.4089 -0.0960 -0.0073
    1W        W53948  16.655  23.081   0.130  0.2283 -0.0130  0.0431
    1W        W53949  23.387  20.727   2.155  0.0976  0.0726  0.0531
    1W        W53950  12.777  14.460   8.251 -0.2154 -0.1333  0.0679
    1W        W53951   0.951  10.706   8.325  0.0743 -0.0534 -0.0480
    1W        W53952  16.368  12.840   7.500  0.2221  0.2547  0.0960
    1W        W53953  23.445  25.388   6.976 -0.2352  0.0326  0.0643
    1W        W53954   1.556  23.680   7.457 -0.0667  0.0115  0.3816
    1W        W53955  22.705  24.247   1.347  0.1324 -0.0645  0.0891
    1W        W53956  25.962   8.968   9.228 -0.4860  0.0488 -0.0755
    1W        W53957   4.157   0.140   2.690  0.0016 -0.1023 -0.0019
    1W        W53958  18.725  20.617   1.295  0.1544 -0.0051 -0.0055
    1W        W53959   8.350   1.080   0.337  0.2672 -0.1379  0.1076
    1W        W53960  10.599   9.293   8.256 -0.2964  0.2735  0.0052
    1W        W53961  16.004  17.397   2.136  0.0310 -0.2522 -0.0280
    1W        W53962  21.509   6.628   0.700  0.2253 -0.1362 -0.1171
    1W        W53963   7.043  18.993   6.777  0.3063  0.3506 -0.2130
    1W        W53964  25.456   3.060   0.922 -0.1735 -0.0533 -0.0502
    1W        W53965  21.228  23.941   7.494  0.1953 -0.0494  0.2008
    1W        W53966   6.983   0.517   2.204 -0.0489 -0.0069 -0.1208
    1W        W53967  14.362  16.645   0.158 -0.0896  0.1497  0.0481
    1W        W53968   1.120   0.968   6.399  0.3056  0.1842 -0.3472
    1W        W53969   0.525  26.905   0.902 -0.0365 -0.1495  0.1904
    1W        W53970  24.676   2.912   8.799 -0.0765  0.1285  0.3057
    1W        W53971   6.064   3.401   7.844  0.0356  0.0701 -0.0370
    1W        W53972   5.939  23.155   7.949  0.2661  0.1266 -0.0818
    1W        W53973  23.741  23.040   7.662 -0.0530 -0.0738 -0.2990
    1W        W53974  24.679  17.522   5.983 -0.3142  0.2986 -0.2187
    1W        W53975  19.178  27.309   1.029  0.1162  0.0491 -0.2361
    1W        W53976  16.625  28.364   0.850 -0.0841  0.1391  0.1257
    1W        W53977   6.114   9.781   1.874 -0.3246 -0.0388  0.2884
    1W        W53978   9.942  13.172   1.703 -0.1076 -0.1756 -0.1306
    1W        W53979  21.647  21.123   8.019  0.1906  0.3638  0.0912
    1W        W53980   0.961  25.480   7.784 -0.2312  0.1040 -0.0850
    1W        W53981  12.451  23.984   2.560 -0.3125  0.2015  0.3633
    1W        W53982   3.169  23.194   8.301  0.1665  0.0698  0.2000
    1W        W53983  14.858  23.539   8.514  0.2546 -0.0406  0.0189
    1W        W53984  27.569  21.752   9.151 -0.2194  0.1561 -0.0935
    1W        W53985  23.313  23.572   1.279  0.1053 -0.0604  0.0913
    1W        W53986  12.439  17.474   0.850 -0.4307 -0.2525 -0.0529
    1W        W53987  15.442   9.362   8.149  0.1359  0.2913 -0.0450
    1W        W53988   5.131  14.101   6.349 -0.2466  0.3266 -0.1147
    1W        W53989  24.471  19.092   7.743  0.2837  0.3061 -0.0843
    1W        W53990  20.883  17.464   8.360 -0.1000  0.1951  0.0637
    1W        W53991  14.981   4.547   0.781  0.0706  0.0543 -0.1270
    1W        W53992  23.420   2.914   9.297  0.2707  0.1870  0.0725
    1W        W53993  20.446  25.458   1.258 -0.2544 -0.0350 -0.2190
    1W        W53994  28.126  20.635   6.682  0.1377  0.0303 -0.2527
    1W        W53995  29.703   7.661   2.788 -0.2037  0.0285 -0.2463
    1W        W53996   0.385   5.539   7.110  0.0649  0.2671  0.3539
    1W        W53997  24.672  14.697   7.981  0.1328  0.2201  0.1008
    1W        W53998   7.360  12.247   7.149  0.0355  0.2510  0.2489
    1W        W53999   0.748  16.970   8.456  0.1848  0.0335  0.2267
    1W        W54000  14.249  24.654   8.876 -0.0259 -0.3056  0.1128
    1W        W54001   5.591  26.344   2.051 -0.1058  0.2500 -0.3582
    1W        W54002  22.228   4.777   1.608 -0.4534 -0.0582  0.0032
    1W        W54003  13.740  27.750   1.563 -0.1128 -0.1101 -0.4483
    1W        W54004  29.572  23.609   2.311 -0.1428 -0.0650  0.2523
    1W        W54005  14.161  15.308   8.350  0.0814 -0.0181 -0.0360
    1W        W54006  25.516   0.676   7.498  0.2933  0.3256 -0.1473
    1W        W54007   9.769  21.813   6.459  0.0063  0.1767  0.1550
    1W        W54008   3.365  28.799   1.376  0.1550  0.1107 -0.1712
    1W        W54009  16.591   9.278   0.638 -0.1396  0.1828 -0.1922
    1W        W54010  14.052   7.552   7.383  0.0805  0.0741 -0.1578
    1W        W54011  24.071  21.973   0.809  0.0411 -0.3419 -0.1531
    1W        W54012   1.803  20.927   0.458 -0.1611 -0.1480 -0.1405
    1W        W54013   6.153   8.769   7.903 -0.1650 -0.2511 -0.2123
    1W        W54014   7.034   3.745   2.528  0.0052 -0.2322 -0.1649
    1W        W54015   2.489  13.032   1.107 -0.1486 -0.0203  0.0083
    1W        W54016  16.133  20.315   1.768 -0.0417  0.0982 -0.2278
    1W        W54017  23.231  16.499   8.761 -0.2730  0.0233  0.1212
    1W        W54018   7.963   9.745   1.666  0.3002  0.0720  0.1063
    1W        W54019  26.189   4.314   9.011 -0.0762 -0.1968  0.0479
    1W        W54020  11.519  25.236   0.475 -0.2303  0.0745 -0.3315
    1W        W54021   7.097  19.182   6.269  0.0122  0.3165  0.2063
    1W        W54022   7.256  28.462   9.450  0.0259 -0.2757  0.2049
    1W        W54023  24.123  16.346   8.947  0.1140  0.0158 -0.2184
    1W        W54024  17.537   2.038   6.833  0.2481  0.1986 -0.0008
    1W        W54025   4.422   7.354   9.259  0.2812 -0.0681 -0.2128
    1W        W54026   9.999  17.990   8.606 -0.0455  0.0539  0.1430
    1W        W54027   7.769  20.031   8.458 -0.2778 -0.1180 -0.0205
    1W        W54028   6.419   0.296   0.212 -0.0519  0.0410 -0.1157
    1W        W54029  15.837  18.063   7.281 -0.0762  0.1737  0.0706
    1W        W54030  13.212  24.502   8.898  0.0891 -0.3158 -0.2382
    1W        W54031  14.797   3.106   0.798  0.2230  0.0143 -0.0650
    1W        W54032   5.513   9.389   2.524 -0.1492  0.1614 -0.0899
    1W        W54033   9.866  28.208   2.888  0.1995  0.1015  0.2060
    1W        W54034  10.763  29.046   7.623  0.1657 -0.2387  0.1323
    1W        W54035  27.254  24.042   0.047  0.0988  0.1529 -0.1042
    1W        W54036  21.056   6.508   0.466  0.0755  0.2279  0.0206
    1W        W54037  27.271  24.039   1.849 -0.1578  0.1613 -0.1130
    1W        W54038  28.080   9.473   2.435  0.0896 -0.1429 -0.1296
    1W        W54039  26.022  16.924   8.902 -0.0492 -0.1710  0.1106
    1W        W54040   9.055   5.934   9.367 -0.1227  0.0722  0.0485
    1W        W54041  10.432   2.815   8.987  0.1048 -0.0582  0.1831
    1W        W54042  20.992   6.383   1.367 -0.2807 -0.0166 -0.1576
    1W        W54043  19.511  14.743   0.782 -0.0546  0.2931  0.2355
    1W        W54044   8.207  27.945   7.451 -0.1161  0.1760 -0.1454
    1W        W54045  21.323  14.451   7.672 -0.0087 -0.3042  0.1506
    1W        W54046  18.748   3.430   8.111  0.1224  0.0350  0.0257
    1W        W54047  28.975   6.274   1.734 -0.0735  0.0879 -0.1968
    1W        W54048  11.122  23.825   1.902  0.0805 -0.1797  0.0461
    1W        W54049   7.309  17.583   6.357 -0.3184  0.1870  0.1874
    1W        W54050   9.433  19.057   8.591  0.2053  0.1272  0.0337
    1W        W54051   7.670  17.677   6.081 -0.1356 -0.0038 -0.0418
    1W        W54052  12.395  21.095   8.226 -0.2631  0.1240 -0.2517
    1W        W54053   9.985   6.236   8.069  0.4991 -0.0141  0.0276
    1W        W54054  20.543   0.160   1.020 -0.3149 -0.3570 -0.1520
    1W        W54055  19.908  15.466   8.880 -0.1274  0.0685 -0.1967
    1W        W54056   2.635  14.513   7.471  0.1424  0.0638 -0.0555
    1W        W54057  21.368  17.058   7.435 -0.0832 -0.3528 -0.0992
    1W        W54058  21.772  10.986   9.224  0.3048  0.0800  0.0216
    1W        W54059   2.621   5.067   8.082 -0.1063  0.0904 -0.1823
    1W        W54060   4.794  23.875   6.447  0.2713  0.0726 -0.1672
    1W        W54061  28.784  12.736   0.639 -0.1939 -0.3412 -0.1388
    1W        W54062  24.278  13.048   0.865  0.0522  0.1566 -0.0239
    1W        W54063  25.376  11.350   1.557 -0.2813 -0.0046 -0.3513
    1W        W54064  27.399  24.771   0.082  0.0011 -0.1231  0.0053
    1W        W54065  24.419  23.227   3.526  0.0792  0.2788 -0.0502
    1W        W54066   8.785  29.739   0.750 -0.3899  0.1799 -0.0317
    1W        W54067  17.701   9.453   2.489 -0.1108 -0.0772  0.1471
    1W        W54068  14.772   1.886   0.517  0.1430  0.1523  0.0861
    1W        W54069   0.725  29.161   2.593 -0.1027 -0.4730 -0.1807
    1W        W54070  27.215  20.663   2.206 -0.0849 -0.2783  0.0666
    1W        W54071  25.333  19.225   0.280 -0.0043  0.1252 -0.0826
    1W        W54072  11.658  22.623   1.158  0.4421  0.0467  0.0439
    1W        W54073   4.355  21.395   1.568  0.0980  0.1513  0.1390
    1W        W54074  14.608  26.467   2.747  0.3208  0.0463 -0.1367
    1W        W54075  17.721  21.779   1.766  0.0905  0.0255  0.0476
    1W        W54076   7.396  13.510   8.213  0.1817 -0.1454  0.2532
    1W        W54077  21.176  29.352   1.972 -0.0272 -0.1293  0.1677
    1W        W54078  28.818  22.018   6.961 -0.0899 -0.0784  0.3759
    1W        W54079  21.817  17.804   1.248 -0.0198 -0.0954  0.0152
    1W        W54080  15.870   5.863   1.656  0.2770 -0.2096  0.0876
    1W        W54081   8.399  24.808   2.243  0.0854 -0.2535  0.2467
    1W        W54082  14.539  23.589   7.416 -0.2722 -0.0769  0.0395
    1W        W54083   1.927   7.775   8.303  0.2464 -0.1377  0.2469
    1W        W54084   2.965   7.199   2.278  0.0800 -0.0640  0.0008
    1W        W54085  27.544  11.958   1.541 -0.2752  0.0329  0.2153
    1W        W54086   6.203  25.894   7.030 -0.1039 -0.2082 -0.0427
    1W        W54087   9.922  26.440   8.265 -0.2285  0.0494 -0.0336
    1W        W54088  10.088  17.756   6.951  0.0505  0.3134 -0.0071
    1W        W54089  25.991  15.399   1.482  0.0222 -0.1025 -0.1705
    1W        W54090  18.917   5.301   6.969  0.1115  0.0639 -0.0323
    1W        W54091  27.993   2.628   0.733  0.1704 -0.0783 -0.1110
    1W        W54092   4.632  19.840   6.809  0.1870  0.1017 -0.0685
    1W        W54093  19.071  29.346   0.092 -0.2064 -0.4023  0.0042
    1W        W54094  14.490  19.604   0.629  0.2298  0.0416  0.1998
    1W        W54095   1.635   6.636   8.120  0.2050 -0.0509  0.2459
    1W        W54096  23.790  27.785   8.978  0.1554  0.1053  0.0910
    1W        W54097  24.621   2.473   1.601  0.0970  0.1803  0.0500
    1W        W54098  23.622  22.184   0.628  0.1363 -0.2000 -0.0067
    1W        W54099  20.899  15.098   1.676 -0.4153 -0.0032 -0.2404
    1W        W54100  15.144  19.834   8.593  0.0961  0.0774 -0.0906
    1W        W54101  10.225  28.178   8.470  0.2270 -0.1375  0.2868
    1W        W54102   7.917   1.933   0.910 -0.1857 -0.0590  0.2366
    1W        W54103   2.036  17.582   2.347  0.0282 -0.3400 -0.0769
    1W        W54104  14.482   1.418   2.999 -0.0559 -0.0010 -0.5793
    1W        W54105   5.695  21.916   2.136 -0.2585  0.0210 -0.2057
    1W        W54106   6.880  13.690   1.769  0.0840  0.0398  0.2917
    1W        W54107  28.817  20.614   1.016 -0.1327 -0.0325 -0.1712
    1W        W54108  16.322   3.570   1.483  0.0752  0.2646 -0.1479
    1W        W54109  25.105  22.544   9.394 -0.0382 -0.0023  0.2772
    1W        W54110  20.540  12.878   8.251 -0.0890 -0.1355  0.1849
    1W        W54111   1.891   1.607   2.857  0.1338  0.0533  0.1723
    1W        W54112  14.731  17.790   8.976 -0.2027  0.2775  0.0724
    1W        W54113  13.923  12.233   7.787 -0.4497  0.0756  0.2326
    1W        W54114  29.092  27.768   7.485 -0.1680 -0.1225 -0.1871
    1W        W54115   4.956  25.733   0.035  0.2003  0.0308  0.1333
    1W        W54116  28.085  24.489   8.308 -0.0927 -0.1428  0.1708
    1W        W54117  22.120  23.830   7.911 -0.1756  0.0517 -0.1466
    1W        W54118  28.610  14.288   0.022 -0.0409 -0.0301 -0.0292
    1W        W54119  29.274  22.576   7.485 -0.0592 -0.2159 -0.2603
    1W        W54120  15.938  27.784   2.542  0.2708  0.2159  0.0069
    1W        W54121  27.300   5.317   8.401  0.1320  0.0883  0.0188
    1W        W54122  21.597   9.081   7.745 -0.1546  0.0954  0.4102
    1W        W54123   1.088  23.360   1.155  0.2911  0.2516  0.0611
    1W        W54124  10.158  28.590   1.199  0.0238  0.0247  0.1019
    1W        W54125   2.122  27.548   2.111  0.2252  0.0230 -0.2914
    1W        W54126   0.799  27.821   9.314 -0.1040  0.1479  0.2570
    1W        W54127   3.660  15.531   1.972 -0.0390 -0.0029 -0.0688
    1W        W54128   6.602  13.682   7.372 -0.0788 -0.3981 -0.0974
    1W        W54129   7.244  10.223   8.477 -0.3431  0.2916  0.5182
    1W        W54130   0.662   9.929   1.611 -0.0826  0.1594 -0.2087
    1W        W54131  16.601   4.157   7.013 -0.4371 -0.1802  0.0707
    1W        W54132  11.754  13.146   2.643 -0.0769  0.1574  0.2685
    1W        W54133  17.521  16.612   2.331 -0.2958 -0.0160 -0.0179
    1W        W54134  26.425   3.772   3.274 -0.1181  0.0042  0.1995
    1W        W54135  23.875  24.686   8.931  0.1985 -0.3226 -0.1501
    1W        W54136  11.788  27.948   1.286  0.0350 -0.2342  0.2307
    1W        W54137  14.078  22.618   0.914 -0.0376 -0.1587  0.0115
    1W        W54138  26.232   5.258   3.338  0.0698 -0.1629  0.1552
    1W        W54139  24.630  13.300   1.204 -0.0817  0.0290 -0.0601
    1W        W54140   4.718  20.881   1.516  0.1526 -0.0961 -0.3683
    1W        W54141  19.833  13.400   0.445  0.0567  0.1360 -0.0113
    1W        W54142  28.385   2.516   0.433 -0.2838 -0.0619 -0.0525
    1W        W54143   7.691  11.911   7.367  0.0227 -0.1206 -0.1305
    1W        W54144   5.838  17.834   0.569 -0.0935 -0.1090  0.0273
    1W        W54145   6.117   3.077   2.269 -0.1576 -0.0409  0.0536
    1W        W54146  18.067   6.598   0.311 -0.0988  0.1326 -0.0629
    1W        W54147   9.132  22.121   1.666  0.0919 -0.0452 -0.0144
    1W        W54148   0.139  16.280   9.295 -0.1690 -0.1343  0.0420
    1W        W54149  10.012  11.298   1.579  0.1379 -0.0201  0.3756
    1W        W54150   7.236  22.928   8.721  0.2501  0.0936  0.3861
    1W        W54151   6.229   8.958   7.427 -0.2685 -0.0807 -0.2897
    1W        W54152   8.410   1.739   1.766  0.0517  0.2552 -0.2911
    1W        W54153   2.272  20.740   6.127  0.0080  0.2598  0.3279
    1W        W54154  16.307   9.926   1.178 -0.3712  0.0171  0.1382
    1W        W54155   2.859  20.011   1.101 -0.1580 -0.1381  0.0887
    1W        W54156  20.096  14.813   6.785  0.3048 -0.1746 -0.1528
    1W        W54157  25.416  13.915   2.284  0.1196  0.0275 -0.1890
    1W        W54158  10.945  28.427   1.372  0.3308  0.0243 -0.2041
    1W        W54159  26.206   1.636   1.104 -0.0739 -0.1076  0.1397
    1W        W54160  23.521  14.529   1.602  0.1198  0.1700 -0.2957
    1W        W54161   4.813  24.611   7.287 -0.2477  0.0104 -0.1730
    1W        W54162   6.874  24.491   7.402 -0.0704 -0.0880  0.1804
    1W        W54163  17.542  11.092   7.548 -0.2697 -0.1924 -0.2278
    1W        W54164  19.593  22.546   8.603  0.0656 -0.1646 -0.2047
    1W        W54165   1.723  26.843   0.838  0.0080  0.3037  0.0277
    1W        W54166  12.367  27.074   2.192 -0.0255 -0.2229  0.1694
    1W        W54167  24.666   9.039   9.009 -0.3393  0.2828  0.0633
    1W        W54168   5.212  25.361   6.304  0.2851  0.2562  0.1468
    1W        W54169  12.049  22.984   6.954 -0.3144  0.0105  0.3387
    1W        W54170   6.296   9.773   7.884 -0.3923 -0.2498  0.2403
    1W        W54171  29.104  13.015   6.087  0.1764  0.1586 -0.1065
    1W        W54172   2.018   5.360   7.487 -0.2071 -0.1643  0.1893
    1W        W54173  17.216  20.521   8.153 -0.0662 -0.0483 -0.1747
    1W        W54174  23.551   0.660   8.251 -0.2582 -0.0554  0.1230
    1W        W54175  25.326   3.757   8.550  0.4604  0.1563 -0.0054
    1W        W54176   0.954  28.783   6.694 -0.1299 -0.2659  0.0583
    1W        W54177   8.463   5.234   1.941 -0.1559 -0.0757 -0.0614
    1W        W54178  10.349   2.689   2.836 -0.2812 -0.1157 -0.3126
    1W        W54179  20.069  25.831   9.240 -0.2461  0.3999 -0.0797
    1W        W54180  13.059  12.564   1.395 -0.3308  0.1366  0.0879
    1W        W54181   9.450  17.414   9.085 -0.1657  0.2433 -0.2362
    1W        W54182   5.533  28.802   7.743  0.4407  0.0842 -0.1490
    1W        W54183  19.023  20.275   1.730  0.0535  0.0339 -0.0386
    1W        W54184  11.597   9.896   8.663  0.0324 -0.0457  0.1915
    1W        W54185  11.468  27.957   1.816 -0.1354 -0.2095 -0.0547
    1W        W54186  12.506  27.890   9.215 -0.1868  0.0150 -0.1919
    1W        W54187   5.099  23.651   8.998 -0.0774 -0.0847  0.2622
    1W        W54188  21.060   5.364   8.914  0.1010 -0.0048 -0.1740
    1W        W54189  27.599  14.285   8.245  0.0217 -0.0593  0.0381
    1W        W54190   0.042  16.209   7.433  0.1408 -0.1831 -0.0285
    1W        W54191   6.492   5.108   2.268  0.1082 -0.2955 -0.1967
    1W        W54192  21.800   6.636   6.579 -0.0492 -0.1209  0.1342
    1W        W54193  16.101   0.282   0.001 -0.1538  0.2248 -0.0391
    1W        W54194  14.016   1.257   2.711 -0.1783 -0.0268  0.1766
    1W        W54195  27.352   6.362   9.404 -0.0141 -0.2404 -0.1023
    1W        W54196   3.243  12.133   2.198  0.0268 -0.3302  0.1385
    1W        W54197   7.724   3.707   8.546  0.1540 -0.0559  0.3897
    1W        W54198  12.305   1.368   7.668 -0.0703 -0.0076  0.0522
    1W        W54199  27.036  20.723   8.338 -0.2052 -0.0838 -0.0258
    1W        W54200  10.212   0.760   1.075 -0.2621  0.1576 -0.0919
    1W        W54201   9.400  29.577   7.586 -0.0683 -0.2330 -0.1819
    1W        W54202  25.121   9.637   1.905  0.0173  0.0326  0.0828
    1W        W54203   4.875  18.629   0.409  0.0398 -0.2603 -0.3395
    1W        W54204  20.866  18.606   1.614  0.1082  0.0520  0.2990
    1W        W54205  26.502  10.961   5.908 -0.0494  0.0962  0.0695
    1W        W54206   6.153   7.891   7.574 -0.1567 -0.1612  0.0279
    1W        W54207   8.156  27.032   7.371  0.3830  0.1244 -0.0017
    1W        W54208  20.704  23.772   1.706 -0.2507  0.3723  0.1739
    1W        W54209   6.274   0.345   7.612  0.3018  0.3661 -0.1116
    1W        W54210  20.703   0.151   2.812  0.2576 -0.0808  0.0713
    1W        W54211  13.398   0.964   6.939 -0.0127  0.0325  0.1188
    1W        W54212  24.016  29.552   0.627  0.0691 -0.0430 -0.0720
    1W        W54213  20.591  22.665   8.318 -0.3898  0.1713  0.1523
    1W        W54214  24.164   1.693   7.750  0.2501  0.3184 -0.0492
    1W        W54215  11.010  20.676   1.026 -0.1560 -0.3058  0.0972
    1W        W54216  26.833  19.276   1.718  0.2313 -0.0795 -0.0087
    1W        W54217  23.317  18.194   7.303 -0.1776  0.1143 -0.1409
    1W        W54218   3.534   6.091   8.330 -0.0977 -0.1756 -0.0812
    1W        W54219  29.788   2.507   2.855  0.2393 -0.2212 -0.1501
    1W        W54220   3.672  28.710   8.734  0.0446 -0.2311 -0.1344
    1W        W54221  24.637  19.276   9.256  0.4086  0.0897 -0.1042
    1W        W54222   2.972  25.052   8.682  0.0805 -0.2857 -0.3973
    1W        W54223   3.678  17.495   1.276  0.2238  0.2515 -0.0107
    1W        W54224  22.154  16.405   7.295 -0.1640  0.2155 -0.0220
    1W        W54225   4.261   6.708   9.034  0.0959  0.0925 -0.0666
    1W        W54226  24.110  10.659   0.668  0.2646  0.0858 -0.0454
    1W        W54227  24.578  28.338   7.134  0.2381  0.0767  0.0906
    1W        W54228   3.050  23.240   6.247 -0.1568 -0.2412 -0.0262
    1W        W54229  29.457  10.171   0.237 -0.1624  0.3869  0.1751
    1W        W54230   8.883   8.357   3.064  0.1136  0.0643  0.1471
    1W        W54231   5.838   3.579   2.496  0.1803 -0.1930  0.0099
    1W        W54232  19.162  29.601   0.596 -0.1207  0.1002 -0.0821
    1W        W54233  25.843  20.906   8.121  0.0952  0.1173  0.1364
    1W        W54234  10.940   3.827   9.097  0.0848 -0.1496 -0.0657
    1W        W54235   7.758  19.738   8.041 -0.0184  0.0407 -0.0876
    1W        W54236   8.877  17.252   1.729  0.2033  0.0605 -0.1278
    1W        W54237  12.773  14.864   0.673  0.1883  0.1919  0.1852
    1W        W54238  24.705   5.568   9.357  0.4461 -0.0061  0.1867
    1W        W54239  19.644  27.154   1.781 -0.4408 -0.0918 -0.3123
    1W        W54240   2.237  17.299   0.876  0.2463  0.0182  0.0380
    1W        W54241   6.902  16.090   0.779  0.2583  0.0546  0.1971
    1W        W54242   7.306   5.348   2.914  0.1470  0.1983 -0.0882
    1W        W54243  21.879  22.596   3.657 -0.0724  0.3360 -0.0407
    1W        W54244   9.304   7.072   3.911 -0.1223 -0.1951 -0.3851
    1W        W54245   8.291  16.495   2.073  0.1785  0.0141 -0.2930
    1W        W54246  28.007  21.951   6.949  0.0471  0.3165 -0.0489
    1W        W54247   6.106  16.196   1.038  0.1141 -0.2534 -0.2554
    1W        W54248  21.983  23.444   7.027 -0.3252 -0.4044  0.1712
    1W        W54249   6.122   4.062   0.271  0.0190  0.2524 -0.0125
    1W        W54250  13.728   4.192   8.551 -0.0811 -0.1680  0.1600
    1W        W54251  28.635  27.352   3.194  0.0327  0.1537  0.2032
    1W        W54252  12.057   2.001   8.009 -0.0147  0.0512  0.2167
    1W        W54253  29.551  20.688   8.328 -0.0715  0.1215 -0.5024
    1W        W54254  27.324  19.482   0.051  0.2903  0.0516 -0.2820
    1W        W54255   9.750  17.085   8.284 -0.2075  0.2061 -0.2617
    1W        W54256  16.611  13.197   1.463  0.0389 -0.0497  0.1010
    1W        W54257  21.395   4.205   0.792 -0.0804  0.0524  0.1242
    1W        W54258  17.311  16.209   2.041 -0.0542  0.1287  0.0359
    1W        W54259  18.549   0.947   6.624  0.0156 -0.1222 -0.0910
    1W        W54260  26.421  21.899   2.077 -0.0395 -0.0945 -0.0202
    1W        W54261  19.872   4.386   0.984 -0.6811 -0.0795 -0.0521
    1W        W54262  11.464  23.423   9.445 -0.0303  0.0029 -0.1520
    1W        W54263  29.283   4.692   9.198  0.3320  0.1884 -0.1419
    1W        W54264  27.116  18.056   9.164 -0.2297 -0.1359  0.2114
    1W        W54265  17.749   3.004   0.794 -0.0579  0.0162  0.1695
    1W        W54266  13.432  23.317   0.477 -0.0782 -0.0397  0.3230
    1W        W54267  20.369   0.829   1.841  0.3630 -0.1638 -0.1064
    1W        W54268  21.620  13.295   0.785 -0.1060 -0.0757 -0.0684
    1W        W54269   1.587   3.965   3.384  0.1106  0.0839  0.0408
    1W        W54270   6.978  19.275   0.932 -0.0217 -0.2204  0.1193
    1W        W54271   6.376  22.381   1.542 -0.1170  0.0631  0.0874
    1W        W54272  27.262   5.007   2.600 -0.0990 -0.1751  0.0356
    1W        W54273   4.574  16.453   2.039  0.2651  0.2031 -0.2957
    1W        W54274  27.044  12.291   2.123 -0.2715  0.1008 -0.1147
    1W        W54275  10.990  15.831   7.212 -0.0022  0.2107  0.0432
    1W        W54276   2.648  28.074   6.950 -0.1855  0.0172  0.2354
    1W        W54277  19.363   7.082   6.437  0.0730  0.3431  0.1423
    1W        W54278  18.803  10.034   1.916  0.0325  0.0677  0.3917
    1W        W54279  26.429   1.821   1.536 -0.1656  0.2029  0.1923
    1W        W54280  12.568  17.684   2.294  0.0578 -0.1371 -0.1058
    1W        W54281  22.687  19.475   1.414  0.1319  0.0796 -0.1665
    1W        W54282  15.094   5.431   8.462 -0.1810 -0.0276  0.0268
    1W        W54283  28.722   5.254   6.923 -0.3247 -0.1614  0.1468
    1W        W54284  27.100  26.414   7.025 -0.2291  0.0528 -0.2043
    1W        W54285  13.149   1.691   2.324 -0.0627 -0.0511  0.1903
    1W        W54286   1.299  18.313   7.346 -0.1019 -0.1931  0.4375
    1W        W54287   2.589  20.634   0.462  0.1191 -0.2520 -0.0950
    1W        W54288  19.921  18.077   1.246 -0.0811 -0.0206 -0.2745
    1W        W54289  15.861  13.764   0.573  0.0195  0.1801  0.0196
    1W        W54290  28.494  29.720   8.817 -0.0915 -0.1750 -0.0721
    1W        W54291  15.217   9.907   8.917 -0.1888 -0.1714  0.0719
    1W        W54292   8.750   3.932   3.025 -0.2049  0.0714  0.1331
    1W        W54293   3.486  25.035   1.945 -0.0495  0.2422  0.0463
    1W        W54294  11.947   1.129   1.423 -0.2143  0.1861 -0.0187
    1W        W54295  14.545  15.505   0.823  0.1369  0.4232 -0.1982
    1W        W54296  22.392  12.901   1.182 -0.1294 -0.2349  0.1479
    1W        W54297  19.136   8.586   7.078  0.0050 -0.0437  0.2862
    1W        W54298  17.947   5.527   9.123 -0.1831 -0.0323 -0.1508
    1W        W54299   2.603  22.141   2.309  0.1632  0.3452  0.1141
    1W        W54300  17.618  13.306   7.757  0.1246  0.1267 -0.0753
    1W        W54301  22.364  12.681   0.745 -0.1908  0.0673 -0.1053
    1W        W54302   8.937  15.026   7.855 -0.0078  0.1101  0.0218
    1W        W54303  24.896   3.128   2.075  0.1342 -0.1176  0.0223
    1W        W54304  21.690   4.907   1.590  0.0136  0.2761  0.1283
    1W        W54305   8.855  11.013   7.687 -0.0518 -0.0771  0.1792
    1W        W54306  27.845   6.235   8.456  0.0135 -0.2338 -0.1352
    1W        W54307  17.903  17.844   8.432  0.1560  0.1827  0.1501
    1W        W54308  25.670   9.418   7.552 -0.0794 -0.1435  0.1381
    1W        W54309   0.002  24.453   0.066 -0.0051  0.3836  0.2931
    1W        W54310  15.391   1.881   2.633  0.2842  0.2483 -0.2195
    1W        W54311   8.518  26.371   1.062 -0.1890  0.2134 -0.1811
    1W        W54312  18.255  15.983   9.439  0.0450 -0.1651 -0.1874
    1W        W54313   7.141  21.763   7.164  0.0355 -0.2668  0.1097
    1W        W54314  22.316  22.847   0.264  0.1501 -0.3566 -0.2536
    1W        W54315  13.727  10.570   0.779 -0.0291  0.1026 -0.0074
    1W        W54316  25.567  18.147   2.108  0.3880 -0.1923 -0.0912
    1W        W54317  26.881   0.995   2.721  0.1255  0.0340  0.0935
    1W        W54318  12.584  11.127   7.968 -0.1793 -0.1003 -0.0535
    1W        W54319  19.050   2.426   7.361  0.1263  0.0549 -0.0969
    1W        W54320   2.329  12.368   0.690 -0.3056  0.3602 -0.1905
    1W        W54321   6.441   7.637   0.747 -0.1516 -0.0522  0.0990
    1W        W54322  27.317  14.352   1.942  0.1225  0.1231 -0.3077
    1W        W54323  19.568   8.676   6.664  0.0374 -0.1064  0.0076
    1W        W54324  27.046   7.048   1.898  0.3559  0.1842 -0.1490
    1W        W54325   2.502   0.353   0.439  0.0793 -0.1164  0.3357
    1W        W54326   0.443  16.599   7.709 -0.2431  0.1295  0.1254
    1W        W54327  25.650   5.250   6.874  0.1721 -0.2096  0.0667
    1W        W54328   2.027  25.717   0.354  0.3008  0.0131 -0.1603
    1W        W54329   8.042  17.536   0.221  0.1089  0.4405 -0.1519
    1W        W54330  23.413  29.771   1.838  0.1918 -0.3690  0.0598
    1W        W54331   8.988  16.825   1.421 -0.0155 -0.1351  0.1169
    1W        W54332  10.623  11.907   0.792 -0.0451 -0.2525  0.4016
    1W        W54333  15.496  14.668   0.754 -0.1004  0.0822 -0.1935
    1W        W54334   1.242   2.067   8.275 -0.1036 -0.2040 -0.0155
    1W        W54335   0.085  25.966   0.063 -0.0944  0.1542 -0.2348
    1W        W54336  26.459  17.422   0.020 -0.1620 -0.0223 -0.2253
    1W        W54337  26.158   4.937   9.089 -0.1294  0.3716  0.2360
    1W        W54338  27.122  21.603   8.233 -0.2259  0.0203  0.0280
    1W        W54339   6.799   8.722   8.761  0.1002 -0.0188  0.2370
    1W        W54340  29.211   4.676   7.917  0.0273  0.0615  0.0869
    1W        W54341  28.350  17.131   0.223  0.0120  0.0515 -0.0038
    1W        W54342  24.973   4.287   2.829 -0.0443 -0.0173 -0.1135
    1W        W54343  23.044   1.408   2.663 -0.1240 -0.0657 -0.1387
    1W        W54344  13.230  26.693   2.419  0.0375  0.0213  0.0151
    1W        W54345  12.882  21.700   2.325  0.4663  0.1781 -0.1205
    1W        W54346  25.866   3.149   7.655 -0.0654  0.0407  0.1831
    1W        W54347  28.970  14.667   8.095 -0.0683  0.3254  0.2317
    1W        W54348   5.720  20.597   6.146 -0.0996 -0.3357  0.0394
    1W        W54349  21.225  13.519   0.927 -0.0964 -0.0909  0.0243
    1W        W54350  29.109   3.898   8.615  0.0162 -0.0346 -0.0121
    1W        W54351  24.068  16.386   8.449  0.1171 -0.1416 -0.1356
    1W        W54352  18.737   1.488   7.496  0.1137 -0.0421  0.4812
    1W        W54353   2.401  28.419   7.203 -0.1642  0.0196 -0.0275
    1W        W54354   5.988   0.649   9.436 -0.0234  0.1817 -0.1514
    1W        W54355  16.009  17.460   8.758 -0.0769 -0.0101 -0.3358
    1W        W54356  23.029  20.943   1.040  0.1815 -0.1326 -0.0062
    1W        W54357  12.302  24.744   8.847  0.0209 -0.1298 -0.2273
    1W        W54358  20.000  10.069   6.886 -0.1130  0.2330 -0.1795
    1W        W54359   3.249   4.271   7.658  0.2532 -0.2085  0.2632
    1W        W54360  14.493  11.765   7.123  0.1781  0.0097  0.1983
    1W        W54361  29.810   8.524   2.733 -0.3002  0.3009 -0.0531
    1W        W54362  15.488   5.564   7.644 -0.0535  0.1280 -0.1853
    1W        W54363   0.544  21.331   7.392 -0.1428 -0.0892  0.0729
    1W        W54364  16.953  21.704   1.970  0.2940  0.1620 -0.2577
    1W        W54365  29.587  28.850   0.402  0.1586  0.0886 -0.1515
    1W        W54366  17.705  20.173   0.533 -0.1026 -0.1297  0.1832
    1W        W54367  12.472  27.636   7.257 -0.0389 -0.1420  0.1169
    1W        W54368  25.051   9.788   5.968 -0.1249  0.0825 -0.1285
    1W        W54369  27.496  11.801   7.808 -0.1321 -0.2974 -0.2953
    1W        W54370  20.915  13.048   8.570  0.3179  0.0876 -0.0472
    1W        W54371  16.006   0.529   3.515  0.0970 -0.0234 -0.1195
    1W        W54372  13.705   1.792   8.421 -0.1613 -0.0075  0.0486
    1W        W54373  27.716  18.807   8.895 -0.0051 -0.2352  0.0358
    1W        W54374  18.448  20.083   2.399  0.3030 -0.1866 -0.2184
    1W        W54375  17.582   4.815   8.230  0.1447  0.2818 -0.0930
    1W        W54376  21.430  20.353   8.186  0.0874 -0.1870  0.2679
    1W        W54377  17.394  27.921   1.072  0.1380 -0.0388 -0.0737
    1W        W54378   6.651  16.169   6.121 -0.1777  0.1819 -0.0147
    1W        W54379  15.939  11.291   2.029 -0.0285 -0.2409 -0.0758
    1W        W54380   6.696  20.004   9.342 -0.0120  0.0080 -0.2016
    1W        W54381  29.646  28.715   0.903 -0.1807 -0.0444  0.2440
    1W        W54382   7.228  18.426   6.870 -0.0848  0.0989 -0.0262
    1W        W54383  29.170  28.823   0.717  0.2216 -0.1020 -0.0245
    1W        W54384  19.521  15.185   0.002  0.1661  0.3883 -0.1114
    1W        W54385  26.634  25.790   8.323  0.0613  0.1160  0.1795
    1W        W54386  12.541  12.301   8.217  0.0279 -0.2074  0.2511
    1W        W54387   2.210  23.896   2.484  0.0727  0.1361 -0.0934
    1W        W54388   1.029  13.601   6.835  0.0837 -0.1302  0.0153
    1W        W54389   4.919   6.607   3.537 -0.0146 -0.2584  0.2440
    1W        W54390  12.117   0.253   1.328 -0.0357 -0.0418 -0.0900
    1W        W54391   9.160  17.393   1.360 -0.1657  0.0235  0.0545
    1W        W54392   7.961  20.859   5.808  0.2164  0.0547  0.1863
    1W        W54393  21.401  13.349   8.716 -0.2196 -0.1934  0.0291
    1W        W54394   5.656  21.390   9.037 -0.1189 -0.2432  0.1858
    1W        W54395  22.759   7.713   2.776  0.1259  0.1035 -0.0502
    1W        W54396  28.842   9.713   0.712  0.1600 -0.0296  0.0002
    1W        W54397   7.239  22.239   0.252  0.2646  0.2132 -0.0875
    1W        W54398  18.771   1.312   0.194  0.0874  0.0368  0.1501
    1W        W54399  21.973  16.245   1.433 -0.0623 -0.2326  0.1098
    1W        W54400  13.946   6.772   2.370 -0.1080 -0.2590 -0.1452
    1W        W54401   4.647  17.667   0.377 -0.0977  0.3684  0.0783
    1W        W54402   5.324  20.469   0.353  0.2705 -0.0986 -0.3885
    1W        W54403  28.753  26.795   6.836 -0.0495  0.3825  0.0242
    1W        W54404   5.331  25.672   7.833  0.1918  0.1641 -0.1704
    1W        W54405  25.673  26.482   0.068 -0.1343 -0.2713  0.0980
    1W        W54406  27.718   9.527   2.037  0.0570  0.2833 -0.2054
    1W        W54407   2.301  17.348   7.586  0.0283 -0.1411  0.5934
    1W        W54408  21.698   1.528   1.119 -0.1884  0.2250 -0.0494
    1W        W54409  20.213  19.703   2.962 -0.0748  0.0099 -0.1821
    1W        W54410   5.663   0.509   1.761  0.0531 -0.1058  0.1940
    1W        W54411  13.019   2.410   8.802  0.0660 -0.1485  0.1130
    1W        W54412  12.266  17.680   8.882  0.1725 -0.0947  0.2581
    1W        W54413  12.721  28.448   7.667 -0.2313  0.0497  0.0208
    1W        W54414  14.829  21.826   7.771 -0.0803 -0.3957  0.3062
    1W        W54415   8.603  22.383   2.348 -0.0660  0.0754 -0.0837
    1W        W54416  19.282   3.112   0.737  0.0699  0.2664  0.2051
    1W        W54417  24.373  11.472   7.466 -0.3159  0.3195  0.1519
    1W        W54418  10.166  18.878   1.278 -0.0866 -0.0278 -0.0486
    1W        W54419  16.845  12.440   7.838  0.0524  0.0450 -0.1810
    1W        W54420  13.943  18.640   1.768  0.1934  0.4636 -0.0838
    1W        W54421  24.319   0.069   8.501 -0.3588 -0.0628 -0.2510
    1W        W54422   8.939   9.222   7.933 -0.3040  0.0227 -0.0664
    1W        W54423  22.600   3.674   0.725  0.0520  0.3447 -0.2170
    1W        W54424   9.956  26.412   6.145  0.1670  0.0145 -0.0894
    1W        W54425   4.663  17.652   1.512 -0.1886 -0.3370  0.1906
    1W        W54426  13.728  25.336   2.913  0.0090 -0.2615  0.1262
    1W        W54427  13.450  26.019   9.453 -0.0111  0.4275  0.3027
    1W        W54428  13.502   0.074   8.099 -0.1874 -0.1982  0.2004
    1W        W54429  19.563  24.005   0.934 -0.2661  0.1977 -0.0325
    1W        W54430  26.495  25.134   1.576  0.1774  0.2522  0.0286
    1W        W54431  27.615  26.349   2.282  0.3480 -0.0636  0.0790
    1W        W54432  10.602   1.312   9.151 -0.0840 -0.0704 -0.3185
    1W        W54433  16.691  16.778   1.874 -0.1297 -0.3171  0.1353
    1W        W54434  20.450   2.849   1.180  0.1520 -0.1651  0.3346
    1W        W54435  24.443  15.171   2.471 -0.0290  0.3904  0.3555
    1W        W54436  19.423   2.865   2.049 -0.1618  0.0183 -0.2806
    1W        W54437  24.861  10.070   6.462  0.0304  0.3047  0.0165
    1W        W54438  27.417  24.518   6.224 -0.1230  0.1591  0.0538
    1W        W54439   5.233  19.970   2.719 -0.2984  0.0174  0.0123
    1W        W54440  24.721  15.104   2.005 -0.1747  0.1894  0.0247
    1W        W54441  24.422  17.191   6.889  0.0314  0.0171 -0.0434
    1W        W54442  10.752   8.652   2.002  0.1186  0.0749 -0.3492
    1W        W54443  10.864  17.175   1.344 -0.1045 -0.2609  0.3670
    1W        W54444  10.516  19.910   1.759 -0.1339  0.0550  0.0560
    1W        W54445   2.377  25.869   2.454 -0.0093 -0.3882  0.0499
    1W        W54446  20.109  26.990   1.906 -0.1233  0.1395  0.0404
    1W        W54447   4.100  21.451   7.048 -0.0380 -0.1392  0.1638
    1W        W54448   3.194   3.706   0.623 -0.0311 -0.1284 -0.0935
    1W        W54449   8.353   0.114   9.192  0.1692 -0.0719 -0.0714
    1W        W54450  18.897  23.971   8.674 -0.1884  0.1462  0.2161
    1W        W54451  23.341  15.221   0.565  0.3267  0.3222  0.0939
    1W        W54452   7.764  29.500   0.863 -0.0672 -0.1045 -0.1562
    1W        W54453   4.348   3.652   7.610  0.2726  0.0193  0.0028
    1W        W54454  11.676  10.910   8.418 -0.1841  0.0597  0.1071
    1W        W54455  23.753   6.425   0.292 -0.0060  0.0337  0.1235
    1W        W54456  20.893  17.236   2.521  0.1631  0.0189  0.2490
    1W        W54457  28.228   7.069   8.057 -0.0396 -0.0130  0.1300
    1W        W54458  26.497   1.158   7.044 -0.2079  0.1546 -0.2164
    1W        W54459  27.651  22.211   0.475  0.1499 -0.2104  0.2023
    1W        W54460  24.712  19.090   2.136  0.1666 -0.2580 -0.0730
    1W        W54461  22.570  19.962   7.728 -0.1161  0.1110 -0.0235
    1W        W54462  22.139  19.722   3.095 -0.0075  0.2271 -0.0085
    1W        W54463  12.928   5.053   0.000 -0.0922 -0.1745 -0.2623
    1W        W54464   1.869  29.305   0.300 -0.2593  0.1740  0.0976
    1W        W54465   4.674  18.488   8.283 -0.2615  0.1420 -0.3864
    1W        W54466   1.402  21.992   0.122 -0.0841 -0.1811 -0.0655
    1W        W54467  14.764   3.678   3.481  0.0680  0.0836 -0.0598
    1W        W54468  20.810  11.187   7.013  0.0152 -0.0217  0.1453
    1W        W54469   9.609  19.643   0.956 -0.1750 -0.0451 -0.0856
    1W        W54470   2.754  16.305   6.879  0.1794  0.0605  0.1486
    1W        W54471  18.904  10.802   1.281 -0.2930  0.1743  0.0489
    1W        W54472  23.917  10.144   6.330  0.0147 -0.2117  0.2780
    1W        W54473  29.086   9.037   6.456 -0.0753 -0.0583  0.1497
    1W        W54474  20.988   1.046   8.142 -0.0484 -0.2350 -0.1020
    1W        W54475   2.509  10.301   2.381 -0.3529 -0.0745  0.1577
    1W        W54476  21.727  22.613   3.149 -0.2867 -0.0879 -0.1198
    1W        W54477  28.431   3.515   1.002  0.1502 -0.0165 -0.0099
    1W        W54478  20.668  15.195   0.915  0.1013  0.1486 -0.0353
    1W        W54479  25.005  11.056   1.798 -0.3017 -0.2639  0.0004
    1W        W54480   4.479  27.705   7.294  0.0219  0.2969 -0.0567
    1W        W54481  28.838  14.168   6.592 -0.3302 -0.2382 -0.3248
    1W        W54482  25.372   5.837   6.129 -0.2607 -0.1151  0.0508
    1W        W54483   4.589  12.344   5.917  0.0499  0.2290 -0.1577
    1W        W54484  17.257   0.117   2.544  0.0211 -0.0547  0.1219
    1W        W54485  24.039  21.626   7.055 -0.1721 -0.0148 -0.0120
    1W        W54486  25.868  22.498   7.300  0.3744 -0.2630 -0.0555
    1W        W54487  23.418   0.199   8.085  0.1505  0.0404 -0.2233
    1W        W54488   4.249  20.314   7.666 -0.0369 -0.1463 -0.3813
    1W        W54489   3.833  21.355   8.271 -0.0047 -0.0910  0.1117
    1W        W54490  11.197   7.448   0.708  0.1674 -0.0051  0.1094
    1W        W54491  21.825  26.820   2.306 -0.0177  0.0300 -0.0262
    1W        W54492  10.656   0.790   0.786 -0.1096 -0.1249 -0.3522
    1W        W54493   9.882  20.109   8.776  0.2167  0.1165 -0.0207
    1W        W54494   6.367  10.558   2.615  0.1225 -0.0153  0.0656
    1W        W54495  13.313  16.879   1.102  0.1024 -0.1028  0.0064
    1W        W54496   7.788  27.163   7.782  0.0234  0.3509  0.2514
    1W        W54497   0.199  15.402   7.395 -0.1912 -0.1692  0.0121
    1W        W54498  13.426  10.541   2.260  0.0371  0.1275 -0.1519
    1W        W54499  22.015   3.503   7.303  0.1332  0.0142  0.0054
    1W        W54500   6.196  23.499   0.637 -0.1813 -0.1093  0.0877
    1W        W54501  22.337   4.429   2.976  0.1929  0.2693 -0.1155
    1W        W54502   4.123  29.177   7.766  0.1123  0.1832 -0.1652
    1W        W54503   2.416  18.696   1.530 -0.2520  0.1325 -0.0384
    1W        W54504   8.798  11.928   1.784 -0.0987 -0.1381  0.0576
    1W        W54505  28.419  20.564   0.235 -0.0452 -0.0315 -0.2266
    1W        W54506  28.163   5.904   2.675  0.2169 -0.1001  0.2634
    1W        W54507   5.777  14.056   8.560  0.0382  0.0213  0.1352
    1W        W54508  29.544  13.752   1.206  0.3466  0.3657 -0.0887
    1W        W54509  13.546  29.050   6.830 -0.2054 -0.2298 -0.0599
    1W        W54510   7.462   8.922   1.522  0.0353  0.0368 -0.1778
    1W        W54511  18.818  24.033   2.655 -0.0840  0.1286  0.3584
    1W        W54512  29.778  20.939   6.326  0.0646 -0.0339  0.1305
    1W        W54513   0.647   7.741   8.788 -0.3687  0.0916 -0.2672
    1W        W54514  12.863   9.359   9.178 -0.1807  0.0799 -0.2571
    1W        W54515   6.664  11.108   2.401  0.0062  0.0157 -0.2993
    1W        W54516  28.090  29.041   9.153 -0.3990 -0.0947  0.0333
    1W        W54517  12.934   0.809   0.408  0.1420 -0.1546  0.0954
    1W        W54518  20.800   5.177   2.348  0.0868  0.1548 -0.0856
    1W        W54519  23.568  28.075   7.722  0.0056  0.1994 -0.0332
    1W        W54520  22.952  17.308   2.329 -0.2399  0.0532  0.1502
    1W        W54521  19.539  18.752   2.023  0.1116  0.2327  0.0777
    1W        W54522  16.127   3.966   7.001 -0.0372 -0.0803  0.0615
    1W        W54523   6.014  26.558   7.651 -0.0737 -0.0449  0.0200
    1W        W54524  11.771  16.636   9.154  0.1929 -0.2455 -0.1359
    1W        W54525  16.189  26.395   0.130 -0.2342  0.1814 -0.0973
    1W        W54526  28.703  26.656   2.044 -0.0855 -0.0513  0.1700
    1W        W54527  12.728  21.726   7.657  0.2132  0.0977  0.0207
    1W        W54528  28.540   0.317   0.624  0.0401  0.1189 -0.2514
    1W        W54529  21.108   4.447   2.851  0.0305  0.0257  0.2615
    1W        W54530  18.635  21.532   0.191 -0.4326 -0.0648 -0.1184
    1W        W54531  29.703  26.536   0.792  0.0690 -0.2362 -0.0906
    1W        W54532   1.581   1.356   0.023 -0.1495  0.1749 -0.1632
    1W        W54533  10.977   1.638   9.093 -0.0874 -0.0135  0.0771
    1W        W54534  13.332   2.757   6.563 -0.1803 -0.0123 -0.1830
    1W        W54535   3.453  11.456   8.726  0.0394 -0.2917  0.0790
    1W        W54536   4.927   3.526   9.336 -0.3232  0.1232 -0.2153
    1W        W54537  18.263  12.744   2.329  0.0947  0.1502  0.0334
    1W        W54538   9.675   9.505   1.540  0.3540 -0.0417 -0.1084
    1W        W54539  26.244  21.605   6.718 -0.0390  0.2804 -0.1330
    1W        W54540  26.447  21.334   2.190 -0.0230  0.1871  0.0477
    1W        W54541  20.081   2.354   8.308  0.1188 -0.1472 -0.1236
    1W        W54542   3.525  15.341   0.205 -0.3352  0.2836  0.1751
    1W        W54543  16.202  14.378   1.020  0.0037  0.1593  0.1727
    1W        W54544  16.200   8.282   8.440 -0.1615 -0.0536 -0.0326
    1W        W54545  13.691   7.487   7.833 -0.3152 -0.1982  0.0097
    1W        W54546   7.856  26.152   2.290 -0.2267  0.1209  0.0808
    1W        W54547  26.645  21.897   6.688  0.1514 -0.4337 -0.0046
    1W        W54548   9.289  15.573   2.327  0.0592  0.1389  0.1467
    1W        W54549  23.381  10.619   2.017 -0.4918 -0.2229  0.1009
    1W        W54550  22.431   9.496   0.765  0.0423 -0.0782  0.2232
    1W        W54551  23.555  16.293   9.066 -0.1978 -0.1464  0.0683
    1W        W54552  24.589  12.185   0.212 -0.1934 -0.0779 -0.1672
    1W        W54553   9.237  27.560   1.560  0.3505  0.1086  0.2257
    1W        W54554  15.087  26.560   2.791  0.2814 -0.3332  0.0934
    1W        W54555  23.647  11.652   0.479  0.3574 -0.1323  0.1946
    1W        W54556   4.374  10.226   6.898 -0.0167  0.1006 -0.3056
    1W        W54557  12.084   7.692   2.128  0.1905 -0.0777  0.3397
    1W        W54558  13.684  12.229   8.280  0.2198 -0.5782 -0.0898
    1W        W54559  26.528   0.213   6.468  0.2369  0.2835  0.0990
    1W        W54560   4.162  24.452   6.358 -0.3114 -0.0916  0.0948
    1W        W54561  29.689   4.587   1.027 -0.0078  0.0699 -0.2306
    1W        W54562   8.530   5.172   2.517 -0.1803 -0.1043  0.0937
    1W        W54563  13.104  28.406   8.668  0.0605 -0.0565 -0.2997
    1W        W54564  23.048   4.053   7.926 -0.0137 -0.1116 -0.1119
    1W        W54565  23.489  17.046   6.476 -0.1238 -0.1222  0.0393
    1W        W54566  29.692  14.962   0.535  0.1382 -0.1445  0.0597
    1W        W54567   2.612  29.293   7.122  0.1285 -0.1922 -0.1707
    1W        W54568   7.864   0.014   9.441  0.0388  0.0623  0.0702
    1W        W54569   6.479   5.039   1.596 -0.2589  0.0998  0.1974
    1W        W54570  11.118  22.645   9.407  0.1014  0.4489  0.1858
    1W        W54571   3.812   0.541   8.817 -0.1280 -0.1066 -0.3134
    1W        W54572   6.738  27.006   7.329  0.0839  0.2127 -0.1125
    1W        W54573   3.312   1.776   8.998 -0.1017 -0.0330  0.3215
    1W        W54574   8.772  20.318   9.255 -0.0490 -0.2381  0.0847
    1W        W54575  15.969  22.921   8.544 -0.0614  0.1913 -0.0274
    1W        W54576  23.254   7.584   7.562 -0.1588 -0.0243  0.2442
    1W        W54577  13.339   2.459   0.665 -0.0686 -0.2005 -0.0796
    1W        W54578   2.045  17.668   8.405  0.0193 -0.1417 -0.0875
    1W        W54579  10.946  26.177   0.507  0.1321 -0.3421 -0.1176
    1W        W54580  28.551  25.065   6.745  0.1008  0.1566 -0.1853
    1W        W54581   1.765  22.271   6.552 -0.1012 -0.0161 -0.1269
    1W        W54582  28.415  16.216   8.508 -0.3907  0.0044 -0.2975
    1W        W54583   9.408   5.970   3.272  0.1445  0.1812  0.3636
    1W        W54584   9.456  19.786   7.086 -0.1445 -0.3298  0.6152
    1W        W54585   3.176  10.132   7.824  0.0515 -0.0743  0.0349
    1W        W54586   1.343  28.516   2.045  0.2626 -0.2072 -0.0296
    1W        W54587  26.084   6.517   8.325  0.0724  0.2323 -0.3792
    1W        W54588  26.334   1.612   0.033 -0.1303  0.0399  0.0475
    1W        W54589  22.392  15.358   0.136 -0.0035 -0.2503  0.0805
    1W        W54590  16.958   5.586   9.269  0.0376 -0.0922  0.0684
    1W        W54591   8.370   6.351   0.046 -0.1425  0.0009 -0.1734
    1W        W54592  16.740   4.452   7.490  0.3611  0.0539  0.0684
    1W        W54593  10.112  24.819   5.939 -0.0123  0.0138 -0.4240
    1W        W54594  15.929  19.055   7.523 -0.1137  0.3004 -0.0732
    1W        W54595  27.530   6.024   7.645  0.0162  0.1740 -0.1356
    1W        W54596   3.207   3.884   8.659  0.2279  0.1236  0.2054
    1W        W54597  27.709  15.833   8.481  0.1929 -0.0288 -0.0372
    1W        W54598  17.978  11.125   7.247  0.2196 -0.0814  0.0063
    1W        W54599  16.641  13.077   0.530  0.3123 -0.3517 -0.1582
    1W        W54600  19.421  13.024   9.257  0.1350 -0.0963  0.0217
    1W        W54601  15.209  22.078   9.078 -0.1601  0.2330 -0.3294
    1W        W54602  11.248  12.967   8.679  0.1531  0.0705 -0.1946
    1W        W54603  20.028   8.965   8.359 -0.1578 -0.2965 -0.1521
    1W        W54604   4.214  13.518   0.369  0.1572  0.1575 -0.1048
    1W        W54605  25.612   9.100   0.122  0.0466 -0.0105  0.1105
    1W        W54606  18.768   4.324   8.805  0.1387  0.2103 -0.2713
    1W        W54607  26.589   5.762   7.544 -0.4365  0.2789  0.2634
    1W        W54608   0.191  29.686   3.286 -0.1207  0.0901 -0.2016
    1W        W54609   3.338  24.263   8.657 -0.0186 -0.0669  0.1939
    1W        W54610  20.097  29.636   7.196  0.0812  0.0098  0.0152
    1W        W54611  20.862  26.244   2.572  0.1192  0.1033  0.2026
    1W        W54612  22.014  26.847   2.788  0.0180  0.0759 -0.1736
    1W        W54613   5.670  16.166   6.966  0.0028 -0.0948 -0.2476
    1W        W54614  28.780  23.146   6.886  0.2694  0.2802  0.0811
    1W        W54615  26.488   8.070   1.834 -0.1708 -0.0163 -0.0488
    1W        W54616  24.234  19.407   0.226  0.3158 -0.2166 -0.1317
    1W        W54617  18.120  27.754   1.327  0.0691 -0.0663  0.1374
    1W        W54618  10.501  11.799   9.241  0.0103  0.0826 -0.0760
    1W        W54619  15.369  26.360   0.698  0.0537  0.5921 -0.0777
    1W        W54620  11.443  14.708   2.098 -0.0834 -0.3106 -0.0275
    1W        W54621  19.663  28.639   3.421  0.2949  0.0873  0.3477
    1W        W54622  16.694  23.279   2.146  0.0371  0.0676 -0.1285
    1W        W54623   9.492  15.886   8.420 -0.3720  0.1550  0.0233
    1W        W54624  16.601  27.436   7.812  0.1214  0.1355  0.0017
    1W        W54625  12.993   3.086   3.806 -0.1410  0.0654 -0.2015
    1W        W54626  10.604   3.921   2.934 -0.0681  0.3068  0.1622
    1W        W54627  13.686  22.977   6.205 -0.0565  0.1014 -0.1985
    1W        W54628  22.894   5.659   7.435 -0.0259 -0.3311 -0.1479
    1W        W54629  28.724  24.757   9.327  0.3986 -0.1534  0.0088
    1W        W54630   1.523  25.365   5.555 -0.1564 -0.3329  0.0503
    1W        W54631   1.225  22.326   2.528 -0.1242 -0.0324 -0.1129
    1W        W54632   3.114  17.414   6.105 -0.0924  0.1875  0.1946
    1W        W54633  16.199  13.654   9.127 -0.0864 -0.0151  0.2413
    1W        W54634  14.348   3.001   1.511  0.0407 -0.2661  0.0279
    1W        W54635  11.886   2.927   8.767 -0.1404  0.0040  0.2099
    1W        W54636   7.168  28.938   2.144  0.1423  0.1901  0.0097
    1W        W54637  27.406  14.682   0.825  0.2668  0.2414  0.1962
    1W        W54638  18.380   4.176   8.454 -0.0149  0.1292  0.2175
    1W        W54639  12.946  23.218   0.047 -0.1585 -0.0780 -0.2671
    1W        W54640  25.691  13.880   8.050 -0.1261 -0.1345  0.0897
    1W        W54641  10.471  28.144   1.116  0.1137 -0.0877 -0.3095
    1W        W54642   3.037  14.683   9.256  0.1291  0.0173 -0.1366
    1W        W54643  20.777  27.650   8.400 -0.0949  0.1387 -0.0747
    1W        W54644  12.611  12.576   8.964  0.0258  0.0713  0.2611
    1W        W54645  20.186  23.432   8.596  0.1064 -0.1351 -0.2655
    1W        W54646  29.290  24.053   6.324  0.0666 -0.1339 -0.0836
    1W        W54647   1.577   0.856   7.539 -0.0217 -0.0042 -0.3275
    1W        W54648  16.652  19.223   0.950 -0.0772  0.0253  0.0237
    1W        W54649  29.254  14.964   7.041 -0.1592 -0.0450  0.0415
    1W        W54650   4.772   5.113   0.677 -0.3266 -0.0059 -0.2151
    1W        W54651  20.766  20.379   8.326  0.0326  0.0963  0.1582
    1W        W54652  23.962   1.729   6.923  0.2490 -0.2487  0.0923
    1W        W54653   3.654  24.506   8.969 -0.0997 -0.1874 -0.1748
    1W        W54654  11.360  23.363   2.065  0.2896 -0.0441  0.3562
    1W        W54655  19.347  13.053   7.840 -0.0376 -0.1902 -0.1714
    1W        W54656  19.197  17.236   9.222  0.2914  0.2060 -0.1543
    1W        W54657   2.622  12.452   8.455  0.0708  0.1354 -0.0476
    1W        W54658  29.163  26.410   1.498  0.0417  0.0198 -0.0829
    1W        W54659  20.412  26.789   8.163  0.2112 -0.3599 -0.0295
    1W        W54660  17.255   7.443   8.557 -0.0060 -0.0081 -0.1817
    1W        W54661  13.426  13.640   2.055  0.0187 -0.0102 -0.2263
    1W        W54662  12.308   8.015   2.783 -0.1519  0.0247 -0.1660
    1W        W54663  28.447  25.230   1.029  0.1114  0.0201 -0.0563
    1W        W54664  28.327  25.493   8.096 -0.1670  0.1316  0.0522
    1W        W54665   4.246   6.170   7.122 -0.0165 -0.0378 -0.0802
    1W        W54666  14.975  20.799   9.208 -0.0777 -0.5559  0.2513
    1W        W54667  25.290  27.804   2.148 -0.0864  0.0251 -0.0129
    1W        W54668   2.221  10.027   7.402 -0.0695  0.0111 -0.1120
    1W        W54669  27.768   5.378   1.306  0.0592 -0.3904 -0.0501
    1W        W54670   9.813   6.503   8.554 -0.2395  0.0065  0.3386
    1W        W54671  28.890   9.089   0.988 -0.4315 -0.5145 -0.2135
    1W        W54672  26.106   0.175   2.409  0.1792 -0.0248 -0.1903
    1W        W54673   5.194  13.448   2.370  0.0770 -0.1034  0.0484
    1W        W54674   3.709   8.695   2.062 -0.0564  0.2079  0.0212
    1W        W54675  26.678  16.752   1.754  0.1365  0.1254  0.1770
    1W        W54676  19.157  25.298   1.956 -0.1583 -0.2858 -0.0587
    1W        W54677  27.582   4.929   8.652 -0.1251  0.0501 -0.3827
    1W        W54678  25.423   6.042   1.933 -0.1425  0.1536 -0.1154
    1W        W54679   9.790   1.313   2.124  0.2339 -0.1631 -0.0055
    1W        W54680  17.759  23.283   2.163  0.0567 -0.0031  0.2405
    1W        W54681  13.554  29.021   2.144  0.0592 -0.2676  0.3178
    1W        W54682  12.518   5.887   3.333 -0.0335  0.1738 -0.0866
    1W        W54683  21.706  15.189   0.886  0.2409  0.0095 -0.0261
    1W        W54684  14.254  25.287   0.461 -0.1427 -0.2180 -0.1533
    1W        W54685  19.342   0.860   2.772  0.1043 -0.2653  0.2290
    1W        W54686  23.537   9.820   9.431  0.1289 -0.2482 -0.0664
    1W        W54687   6.900   9.673   7.688  0.2132 -0.1003  0.0839
    1W        W54688  19.076  22.190   1.844  0.3142  0.2067 -0.0717
    1W        W54689  20.082   8.420   7.280 -0.1057 -0.1374  0.1430
    1W        W54690  12.655  27.818   3.254  0.0038 -0.0489  0.0817
    1W        W54691  10.154  17.091   1.217  0.2301 -0.2557 -0.3078
    1W        W54692  18.151  22.611   8.171  0.2856  0.1553 -0.1749
    1W        W54693  12.909  19.070   6.657  0.3004 -0.0152  0.2286
    1W        W54694   0.418   1.025   0.136 -0.0032  0.0779 -0.2803
    1W        W54695  27.167  17.432   2.913  0.1427 -0.1337  0.0111
    1W        W54696  13.489   9.613   1.686  0.1752  0.1050  0.2584
    1W        W54697  19.328   0.113   1.224 -0.1381  0.0704 -0.2001
    1W        W54698  23.832  21.684   0.058  0.0546 -0.1002 -0.0019
    1W        W54699  21.872  29.404   7.965 -0.2049  0.4521 -0.0315
    1W        W54700   5.306   6.930   3.650  0.0483 -0.0779 -0.0202
    1W        W54701   0.921  29.739   2.110  0.1489  0.0475  0.1851
    1W        W54702   0.311   4.391   1.153 -0.0673  0.0193  0.4499
    1W        W54703  10.855   8.214   8.780  0.2733 -0.0001 -0.0086
    1W        W54704  13.356  22.459   1.962 -0.1489  0.2558  0.2562
    1W        W54705  20.031  28.876   8.516 -0.2270 -0.1815 -0.0639
    1W        W54706  11.508  11.475   9.459  0.0009 -0.1017  0.0983
    1W        W54707   9.085   5.674   6.721 -0.0514  0.0402 -0.0588
    1W        W54708  18.545  15.193   8.854 -0.0470  0.1402 -0.0079
    1W        W54709  16.212   9.465   0.980 -0.2007  0.2130  0.0076
    1W        W54710  28.387   8.362   8.502  0.2764 -0.2300  0.1549
    1W        W54711   7.171  23.769   8.961 -0.3139  0.0291 -0.3216
    1W        W54712  10.308   7.650   8.321 -0.2346  0.1094 -0.1076
    1W        W54713  24.166  16.205   7.623 -0.0292  0.0696 -0.1464
    1W        W54714   0.554   7.129   2.289  0.3435 -0.3473 -0.0006
    1W        W54715  12.907  14.292   1.906 -0.1901  0.1700  0.1117
    1W        W54716  18.441  12.027   1.056  0.1265 -0.0254 -0.0162
    1W        W54717  12.018   3.522   7.347 -0.1282 -0.0020 -0.0878
    1W        W54718  24.236  12.716   6.950  0.1762 -0.1128 -0.0243
    1W        W54719   3.324   5.520   7.681  0.1464  0.0365  0.0262
    1W        W54720  23.184  24.687   1.242  0.1123  0.1966  0.1368
    1W        W54721  29.211   9.473   2.379 -0.0680  0.0729 -0.0406
    1W        W54722   8.894  29.256   2.490  0.0646 -0.1121 -0.2367
    1W        W54723  26.843   4.753   7.440  0.1274  0.0770  0.2482
    1W        W54724  14.990   0.209   0.717  0.1378 -0.1623 -0.0812
    1W        W54725  23.201   7.038   9.386  0.4334  0.3043  0.1028
    1W        W54726  15.389  18.608   8.641 -0.1834 -0.0037  0.0148
    1W        W54727  22.679  11.915   1.934  0.2422 -0.1419 -0.0010
    1W        W54728  21.658  17.724   8.767 -0.0416 -0.1510 -0.2746
    1W        W54729   8.994  12.975   7.191  0.4209  0.1200 -0.0435
    1W        W54730  13.247   3.096   2.833  0.0175 -0.0078 -0.2085
    1W        W54731  18.293   2.104   8.163 -0.1917 -0.1524  0.2044
    1W        W54732  13.952  14.007   0.500  0.0737  0.0226 -0.0957
    1W        W54733  28.495  22.835   1.660 -0.1533  0.1797 -0.2595
    1W        W54734   6.188  12.910   2.142  0.3882 -0.1206 -0.0307
    1W        W54735  25.943  19.557   8.906 -0.0781 -0.2533 -0.1267
    1W        W54736   7.914  21.821   6.686 -0.2841 -0.0931 -0.0970
    1W        W54737  17.692   9.250   0.852  0.1391 -0.1972 -0.2601
    1W        W54738   8.184   9.729   8.512  0.3810  0.3038  0.0138
    1W        W54739   5.050  22.202   8.412 -0.1093  0.0566  0.1368
    1W        W54740   6.213   7.147   8.297 -0.2547 -0.1288 -0.0089
    1W        W54741  21.102   8.892   8.419  0.0225 -0.0539  0.1686
    1W        W54742  24.606   6.048   6.875 -0.2286 -0.1660 -0.1184
    1W        W54743   4.417  29.782   3.094 -0.0157 -0.1587 -0.1208
    1W        W54744   6.127  11.612   7.062  0.1581  0.2974 -0.4859
    1W        W54745  27.334  16.610   2.155  0.0993  0.2952  0.0347
    1W        W54746  13.630   6.882   8.897  0.0276  0.1420 -0.1068
    1W        W54747   0.252   6.773   2.080  0.1037 -0.1415 -0.2039
    1W        W54748  29.470  23.142   2.880  0.0913 -0.2610  0.0969
    1W        W54749  27.780   4.986   2.344  0.0306 -0.0589  0.4101
    1W        W54750  12.263  11.083   0.024 -0.2512  0.2196 -0.2181
    1W        W54751   8.267  20.118   6.747  0.1524  0.0722 -0.0952
    1W        W54752  12.631   0.657   0.924 -0.1305 -0.0100  0.0217
    1W        W54753   1.764  12.424   7.945 -0.0104  0.0558  0.0566
    1W        W54754  24.244   8.919   7.912 -0.4136  0.2942  0.0634
    1W        W54755  22.565  14.412   1.403  0.1339 -0.0316 -0.0609
    1W        W54756  21.049  25.919   8.409  0.0826  0.0496 -0.1767
    1W        W54757  27.315   8.735   7.526  0.0677 -0.1540  0.1063
    1W        W54758  13.777   0.261   2.550  0.2079  0.0290 -0.0538
    1W        W54759  25.959  24.595   2.035  0.0225 -0.0380 -0.3176
    1W        W54760   7.015  24.614   6.846  0.0943  0.1240 -0.1230
    1W        W54761   8.666  17.477   0.910  0.2257 -0.1891  0.2397
    1W        W54762  21.099  13.572   7.309 -0.3287  0.1359 -0.0667
    1W        W54763  27.831  13.277   7.869  0.0035  0.1868 -0.1721
    1W        W54764  16.264  17.802   9.063  0.0978  0.2392  0.2114
    1W        W54765   6.419  13.739   1.882  0.2836 -0.0203  0.0294
    1W        W54766  11.432  11.357   8.971 -0.1862 -0.1525 -0.1494
    1W        W54767  25.436  11.312   1.037 -0.1314  0.2737 -0.4605
    1W        W54768  29.789   4.430   8.897 -0.2303 -0.0853  0.2652
    1W        W54769  15.077  22.292   2.319  0.3826 -0.0464  0.1539
    1W        W54770  14.860   9.130   1.091 -0.1564 -0.0492 -0.0809
    1W        W54771  24.960  12.570   6.174 -0.2443 -0.0462 -0.3334
    1W        W54772  15.813   9.078   0.797  0.0604 -0.1413  0.1390
    1W        W54773  25.146  24.735   2.560  0.4250 -0.2622 -0.2117
    1W        W54774  18.138   8.786   9.427 -0.1084 -0.1868 -0.1830
    1W        W54775   6.375  29.013   8.999 -0.0471  0.2270 -0.0472
    1W        W54776   3.925   3.452   1.362 -0.3138 -0.0491  0.1406
    1W        W54777  16.428  21.712   8.153  0.2527 -0.0154 -0.1934
    1W        W54778   8.273   0.240   2.393 -0.2255  0.2155  0.1933
    1W        W54779  14.987  20.504   7.188 -0.1101  0.0056  0.1374
    1W        W54780  14.079  16.211   2.442 -0.2373  0.0404 -0.2633
    1W        W54781   4.241  18.635   9.447 -0.0532  0.1056  0.2970
    1W        W54782   6.930  15.274   6.833  0.0110 -0.0458 -0.0928
    1W        W54783  25.790   5.960   2.326 -0.3396 -0.0067  0.0619
    1W        W54784  19.842   9.073   7.587 -0.1143  0.0212 -0.0889
    1W        W54785  24.156   5.925   8.432 -0.3315  0.0686  0.0900
    1W        W54786  19.599   4.067   9.430 -0.2047 -0.1823  0.1056
    1W        W54787  26.945  19.230   2.175  0.2669  0.0294 -0.4136
    1W        W54788  10.468   2.909   2.072 -0.2518 -0.0587  0.1872
    1W        W54789  23.536  13.472   9.137  0.1215  0.1877 -0.0806
    1W        W54790  28.264  26.806   0.386 -0.1398 -0.1975 -0.2333
    1W        W54791  21.833  23.538   9.402  0.1123 -0.1116 -0.0833
    1W        W54792  19.349  26.503   8.855 -0.3144 -0.3279  0.0419
    1W        W54793   0.010  20.634   1.788  0.1195 -0.0620  0.5471
    1W        W54794  26.228   0.141   0.035  0.0325  0.0280 -0.1713
    1W        W54795   4.174   2.827   9.076 -0.1327  0.0558 -0.2586
    1W        W54796  25.920  13.385   8.620  0.1043 -0.0402  0.0035
    1W        W54797  28.005   3.710   8.622 -0.0829 -0.0198  0.0509
    1W        W54798  29.221  10.926   6.005 -0.1157  0.0313 -0.1821
    1W        W54799   6.727  23.384   8.297 -0.2072  0.1567  0.1092
    1W        W54800  19.930  20.006   2.459 -0.0098 -0.1388 -0.2867
    1W        W54801  17.973   9.689   0.988 -0.0394  0.0539 -0.0764
    1W        W54802   7.625   2.983   3.330 -0.0470 -0.0051  0.1577
    1W        W54803  24.263  17.742   1.863 -0.0071 -0.1395 -0.1356
    1W        W54804   5.790  10.341   8.434  0.0344 -0.1281  0.0376
    1W        W54805   7.328  14.561   0.673 -0.2396 -0.1321 -0.1918
    1W        W54806  17.620  13.589   9.447  0.0864  0.2863 -0.0249
    1W        W54807  22.144  20.631   2.811  0.3143 -0.0083  0.1871
    1W        W54808  20.205  13.858   0.225  0.0528 -0.0067 -0.3580
    1W        W54809  29.147  18.693   9.215 -0.0910  0.0097  0.0488
    1W        W54810  28.771  21.433   1.899  0.0124  0.1651 -0.4363
    1W        W54811  19.610  29.471   0.656 -0.0134 -0.2255 -0.3749
    1W        W54812   4.379  29.112   0.048  0.0752 -0.0730 -0.2420
    1W        W54813  19.077  23.248   8.761  0.2014  0.0905 -0.4710
    1W        W54814   6.019  17.134   7.095  0.2762 -0.1018  0.1586
    1W        W54815   8.791  27.409   6.952 -0.1484  0.0649  0.1422
    1W        W54816  11.303   8.777   1.959 -0.0574  0.3964 -0.0596
    1W        W54817  17.730  21.243   8.516  0.1803 -0.0708 -0.0660
    1W        W54818   6.395   0.803   1.031 -0.1708 -0.0284 -0.1758
    1W        W54819  16.593  11.014   7.947 -0.0788  0.5055 -0.2172
    1W        W54820   6.747   1.153   1.257  0.3480 -0.0832 -0.0618
    1W        W54821  24.993  13.965   7.418 -0.1943  0.1369 -0.1549
    1W        W54822  20.983   8.861   9.319 -0.1934  0.0228  0.0662
    1W        W54823  21.389  11.822   7.658 -0.2360 -0.0451 -0.0893
    1W        W54824  22.787   2.178   2.445  0.2118 -0.0291  0.3899
    1W        W54825  16.097  23.811   1.021 -0.1318 -0.0799  0.3121
    1W        W54826   9.619   2.290   2.205  0.0913  0.2860  0.1904
    1W        W54827  25.621   8.041   6.548 -0.1222  0.0821  0.1483
    1W        W54828   2.939  20.391   6.317 -0.2022  0.4271  0.0353
    1W        W54829  19.795   8.731   9.117  0.0428 -0.3597  0.1467
    1W        W54830  16.053  21.877   1.902 -0.2286  0.1879 -0.0569
    1W        W54831  13.495  16.702   6.372  0.1969 -0.2922  0.0849
    1W        W54832  27.166   3.836   2.723 -0.1086  0.1334 -0.2092
    1W        W54833  28.149   3.963   6.750 -0.3456 -0.1067 -0.0715
    1W        W54834   5.140  10.729   0.673  0.0408  0.1343 -0.0171
    1W        W54835   5.576  24.780   9.128 -0.0928 -0.1256  0.3838
    1W        W54836  14.629   6.100   7.580 -0.1447  0.1553  0.2465
    1W        W54837  27.755   6.026   8.054 -0.1754 -0.2746  0.1725
    1W        W54838  26.190  26.258   8.047 -0.1163  0.4458  0.1057
    1W        W54839  20.294  27.583   0.615  0.1169 -0.3603  0.2228
    1W        W54840  14.831  22.772   7.278 -0.3193 -0.1405 -0.0562
    1W        W54841  15.788  26.519   3.179  0.1835 -0.0150 -0.1650
    1W        W54842  23.662  24.627   8.207 -0.0315 -0.0037  0.2557
    1W        W54843   6.658  20.539   8.505 -0.0320 -0.0755 -0.0767
    1W        W54844   4.178  18.235   7.722  0.2407 -0.0454  0.1203
    1W        W54845  23.639  17.677   8.959  0.1495 -0.1489 -0.3639
    1W        W54846  29.650   1.325   1.956 -0.2496 -0.0566 -0.3852
    1W        W54847  27.449   7.859   9.173  0.1445 -0.1159  0.2891
    1W        W54848   9.100   1.477   2.973  0.0658  0.1908  0.0451
    1W        W54849  22.123  20.210   7.336  0.3112 -0.0681  0.0712
    1W        W54850  27.173  28.297   3.015  0.0600 -0.0295  0.2130
    1W        W54851  15.620  10.160   9.260 -0.1720  0.1012  0.1681
    1W        W54852   1.166  13.172   8.909 -0.0267  0.3983  0.0564
    1W        W54853   1.750  13.446   7.839 -0.0066 -0.0403  0.0719
    1W        W54854  23.933  15.030   8.550  0.3094 -0.4171  0.4609
    1W        W54855   2.993   2.327   0.170  0.1076  0.0033 -0.2049
    1W        W54856   8.123  17.602   7.464  0.4187 -0.0054 -0.1993
    1W        W54857  14.229  13.605   8.572 -0.0171 -0.2021 -0.3115
    1W        W54858   5.997   0.103   2.632  0.0140 -0.0283 -0.0256
    1W        W54859  27.727   2.076   1.947  0.2170  0.0345  0.1733
    1W        W54860  29.341  22.205   1.679  0.1514  0.0109  0.2392
    1W        W54861  17.143   8.329   1.337 -0.1295 -0.4473 -0.0719
    1W        W54862  23.329   0.010   8.587  0.2069  0.0236 -0.0400
    1W        W54863  25.125  14.421   8.689 -0.0006  0.2237  0.0821
    1W        W54864  21.187   6.990   0.466  0.3986 -0.1034 -0.0831
    1W        W54865   1.051  22.439   7.759  0.3245 -0.0156 -0.0953
    1W        W54866  26.481  23.482   1.587  0.3367 -0.0369  0.3557
    1W        W54867  26.548  14.096   6.358  0.2687  0.0440  0.1266
    1W        W54868  18.812  25.212   0.664 -0.0841  0.2170  0.1115
    1W        W54869  25.333  27.275   2.060  0.0308  0.1902  0.0562
    1W        W54870  16.742  10.525   7.908 -0.2147 -0.0280 -0.1157
    1W        W54871  22.371   5.114   1.038 -0.3759  0.1016 -0.2715
    1W        W54872  23.945  18.114   8.933  0.2613  0.1809 -0.0406
    1W        W54873   1.790   7.144   8.111 -0.0589 -0.0852  0.2567
    1W        W54874  17.870  23.031   8.361  0.2579  0.0460 -0.1512
    1W        W54875   3.161  26.634   0.089  0.0429 -0.1735  0.0442
    1W        W54876   5.713  27.287   9.045 -0.0789 -0.0379 -0.0214
    1W        W54877  26.318  21.773   9.329 -0.0897 -0.0462 -0.0236
    1W        W54878  15.790  29.100   0.214 -0.1339  0.0492  0.0993
    1W        W54879  16.808  29.222   0.749  0.3401 -0.1993  0.0579
    1W        W54880  24.967  13.802   2.161  0.1360 -0.0805 -0.3119
    1W        W54881  25.101  17.699   0.566 -0.2440  0.1094  0.1963
    1W        W54882  25.949   8.009   7.837 -0.2997 -0.0375 -0.0443
    1W        W54883  24.363   6.448   8.475 -0.0307 -0.0516  0.1684
    1W        W54884  24.450   1.958   2.367 -0.1728 -0.1279  0.1454
    1W        W54885  19.056  25.136   2.594 -0.0351  0.1188 -0.2161
    1W        W54886  11.533  18.060   7.879  0.3373  0.1951  0.2399
    1W        W54887  24.798   4.093   1.191 -0.0656  0.0330 -0.4277
    1W        W54888  25.424  15.506   9.092  0.0856 -0.2300  0.3163
    1W        W54889  15.493  10.834   7.101  0.2617  0.0322 -0.2912
    1W        W54890  11.133  28.478   8.361  0.0618  0.3217 -0.0477
    1W        W54891  28.704   2.732   7.864 -0.3604  0.0614 -0.0024
    1W        W54892   5.933  13.706   7.980 -0.1643  0.1836 -0.1517
    1W        W54893   5.268  19.176   8.594 -0.1789  0.0483  0.1184
    1W        W54894   8.052  15.449   0.038 -0.1443 -0.1758  0.2075
    1W        W54895   1.944   9.961   0.546  0.1797  0.2579  0.0282
    1W        W54896   9.034  13.807   1.928  0.0670  0.0302  0.0127
    1W        W54897  24.596  17.657   6.946  0.1670  0.3495 -0.4655
    1W        W54898  22.444  13.214   8.032 -0.1079 -0.0105  0.1771
    1W        W54899  12.090   6.893   7.856  0.1784 -0.0378 -0.0458
    1W        W54900  24.635  18.947   1.058 -0.1060 -0.2636 -0.0541
    1W        W54901   6.259  23.869   7.634 -0.2751  0.1637  0.1158
    1W        W54902  19.749  23.345   1.488 -0.2827 -0.0431 -0.4772
    1W        W54903  28.317   4.664   2.258  0.1991 -0.0401  0.0608
    1W        W54904  25.170  21.648   1.305  0.5545  0.0621  0.0127
    1W        W54905  22.039   3.145   0.192  0.3218  0.1945 -0.0813
    1W        W54906  12.039  10.112   7.337  0.2648  0.0166  0.0369
    1W        W54907  19.917   2.463   7.878  0.1839 -0.1037 -0.2243
    1W        W54908  12.795   7.999   8.569  0.1079 -0.2485  0.0173
    1W        W54909  15.198   6.950   2.605  0.1162  0.0084  0.1188
    1W        W54910  11.940  26.424   0.934  0.1961 -0.3066 -0.3337
    1W        W54911  27.159   6.744   6.485  0.1292  0.1212  0.1362
    1W        W54912  26.595  28.191   0.310  0.0919  0.0111 -0.1292
    1W        W54913   6.813  29.476   8.492  0.1057 -0.0917 -0.0828
    1W        W54914   6.628   4.018   0.323 -0.0480 -0.0909 -0.0145
    1W        W54915   8.111  11.734   0.406 -0.0028  0.0486  0.0516
    1W        W54916  13.812  11.068   8.540 -0.0156 -0.3422  0.0607
    1W        W54917   9.320   4.930   1.488  0.1684  0.1979 -0.1603
    1W        W54918  12.592  20.239   1.065 -0.2448 -0.1588  0.3846
    1W        W54919   5.526  23.522   7.968  0.1534 -0.2980  0.0254
    1W        W54920  20.909  10.757   0.107 -0.0882 -0.0256 -0.0032
    1W        W54921   9.198   0.929   1.563 -0.3352 -0.2029  0.1570
    1W        W54922  22.317  20.482   3.242 -0.2031  0.0223 -0.0419
    1W        W54923  14.129   1.181   7.500 -0.0596  0.2178  0.3434
    1W        W54924  28.173   1.934   1.727  0.0277 -0.1073  0.1190
    1W        W54925  12.770  14.651   7.537 -0.2126 -0.0159  0.0250
    1W        W54926  29.283  14.072   6.857  0.2039  0.0851  0.1439
    1W        W54927  24.919  27.779   3.023 -0.0808 -0.0684 -0.0967
    1W        W54928  10.626  12.887   9.179  0.1428  0.1985 -0.0481
    1W        W54929  19.077   5.465   0.697 -0.0166 -0.2548  0.1308
    1W        W54930  11.660   3.690   2.107  0.0071 -0.2518 -0.1682
    1W        W54931  13.052   5.727   1.477 -0.0047  0.0150  0.1630
    1W        W54932  13.726  13.431   8.615 -0.0392  0.0168 -0.0276
    1W        W54933  21.116   8.600   0.990  0.0510 -0.1281 -0.1896
    1W        W54934  25.803   2.054   8.456  0.3698 -0.0670  0.1222
    1W        W54935  19.302   5.101   0.980 -0.4208 -0.1503 -0.1461
    1W        W54936  19.658   6.098   8.734 -0.0314  0.0314  0.0584
    1W        W54937   5.312   0.274   7.591  0.0450  0.0093 -0.1806
    1W        W54938  15.168  11.173   9.134 -0.3506  0.0114  0.1649
    1W        W54939  28.124  27.943   7.051  0.3072  0.0827  0.1749
    1W        W54940  17.200   6.399   8.310  0.3747  0.0829  0.2806
    1W        W54941  10.805  24.612   7.310 -0.3370 -0.2025  0.1728
    1W        W54942  22.120   4.004   7.527 -0.1744 -0.1357  0.1262
    1W        W54943   4.931  15.473   8.946  0.2433 -0.1117 -0.1259
    1W        W54944   5.144  19.175   1.027 -0.2123  0.0876  0.2483
    1W        W54945  11.763  20.115   0.953  0.1250 -0.2023  0.0391
    1W        W54946  14.608   5.851   1.061  0.3049 -0.2316  0.1172
    1W        W54947  11.326  26.783   7.204  0.1686  0.0747  0.0684
    1W        W54948  20.412  16.280   0.503 -0.3440  0.3722 -0.2410
    1W        W54949  13.340  23.632   1.816  0.3331  0.4721  0.1283
    1W        W54950  28.231   6.708   6.156 -0.0228 -0.2026 -0.0793
    1W        W54951   6.617  18.970   6.270  0.1867 -0.0908 -0.2427
    1W        W54952  26.183  25.547   1.823 -0.1183 -0.2276  0.2571
    1W        W54953   1.437   9.271   6.016  0.2391  0.0656 -0.0911
    1W        W54954   4.136  14.591   9.093 -0.2342  0.2592 -0.0287
    1W        W54955   1.717  29.165   0.857 -0.0475 -0.1305  0.1995
    1W        W54956  18.925  29.725   0.978 -0.1342  0.1758 -0.3289
    1W        W54957   4.087  18.981   0.430 -0.1538 -0.0516  0.1730
    1W        W54958  17.182  11.474   0.463  0.2410  0.3524  0.0828
    1W        W54959  18.450  13.247   7.102 -0.0841  0.3519  0.0424
    1W        W54960   1.827   4.376   8.996  0.4376  0.0613 -0.0902
    1W        W54961  22.902  10.531   2.266 -0.0565 -0.1790  0.0195
    1W        W54962  17.247  19.515   1.584  0.3279  0.0044 -0.0042
    1W        W54963  11.025   3.599   2.958 -0.0951  0.2126  0.0140
    1W        W54964  16.573  22.976   8.676 -0.0974 -0.0824  0.1300
    1W        W54965  22.497   0.114   1.555  0.2579 -0.1633 -0.1514
    1W        W54966  12.876   6.467   2.232  0.0876 -0.0197 -0.0191
    1W        W54967   2.061  16.086   8.834 -0.0261  0.3166  0.0248
    1W        W54968   2.174  25.282   6.937 -0.1083 -0.1215  0.0074
    1W        W54969  17.974  24.424   2.818 -0.3217 -0.0838  0.2288
    1W        W54970  26.044   1.035   3.043  0.2264  0.3757 -0.0689
    1W        W54971  20.044  12.103   8.268 -0.1555  0.1185 -0.0429
    1W        W54972   9.679   2.542   1.261  0.0504 -0.0892 -0.0799
    1W        W54973   2.885   1.564   1.604  0.4583 -0.1043 -0.0142
    1W        W54974  22.222   5.575   1.116  0.1816 -0.1109  0.2531
    1W        W54975  23.962   1.172   0.417  0.1057  0.2736  0.0454
    1W        W54976   7.152   8.443   0.218  0.2989  0.0571 -0.0791
    1W        W54977  12.281  13.750   7.932 -0.0028  0.0347  0.0649
    1W        W54978   3.006  16.126   9.366 -0.3456  0.2875 -0.1800
    1W        W54979   9.165  12.414   9.313  0.1592 -0.1386  0.0331
    1W        W54980  10.388  23.012   8.028 -0.0533  0.0404 -0.1156
    1W        W54981   2.487  17.617   7.175 -0.0601 -0.1678 -0.2193
    1W        W54982   6.278  15.551   7.043 -0.0326  0.0493 -0.3466
    1W        W54983   4.369  17.816   6.455  0.0779  0.0807 -0.2064
    1W        W54984  15.052  11.507   0.285  0.4148 -0.0922  0.1216
    1W        W54985  21.497   6.278   1.069  0.2446  0.1050  0.0829
    1W        W54986   9.909  26.150   7.394  0.2790 -0.0730  0.0996
    1W        W54987   6.428  14.243   9.234  0.1344 -0.1185  0.1973
    1W        W54988  18.035  12.446   9.131  0.1319  0.0198  0.0890
    1W        W54989  20.434   1.417   0.192  0.1253 -0.2590  0.2075
    1W        W54990   4.101  16.844   1.757  0.0753  0.0473 -0.3299
    1W        W54991   1.730  23.539   1.818  0.2006  0.0270  0.1456
    1W        W54992   5.196  20.559   7.746 -0.2517  0.0623  0.0578
    1W        W54993  21.764  15.676   6.768 -0.0470  0.3936  0.2190
    1W        W54994   8.221  22.625   7.275 -0.0437 -0.1773 -0.1579
    1W        W54995  14.121  19.978   0.379  0.0362  0.1483 -0.0013
    1W        W54996  29.064   4.318   2.777  0.0671 -0.1304  0.2047
    1W        W54997   9.836  25.295   0.777  0.0906 -0.2314 -0.1909
    1W        W54998   6.447   0.316   2.215  0.0636  0.1510 -0.2332
    1W        W54999  21.010  28.648   0.752 -0.0006  0.3330  0.5123
    1W        W55000  29.517  26.471   6.920  0.0723  0.0003  0.1106
    1W        W55001  26.524   2.959   0.948  0.0849  0.2608  0.0317
    1W        W55002  11.359  18.287   0.574 -0.1324 -0.0054  0.1362
    1W        W55003  14.179  29.644   2.127 -0.2748  0.0877 -0.1637
    1W        W55004  13.332  20.856   8.440  0.0583 -0.2877 -0.0953
    1W        W55005  23.540  29.353   8.325  0.2828  0.0263  0.1952
    1W        W55006  17.884  12.417   1.554 -0.0178  0.0850 -0.0584
    1W        W55007  13.536  11.248   1.632 -0.0247  0.0226  0.1042
    1W        W55008   4.823   2.320   8.778 -0.4421 -0.0406 -0.0211
    1W        W55009  27.028  27.896   1.813 -0.0041  0.0552  0.0701
    1W        W55010  26.113  12.478   1.966  0.3251  0.1146 -0.1908
    1W        W55011   1.031  28.153   8.419 -0.0698 -0.1706 -0.0010
    1W        W55012   7.460  23.680   1.277 -0.1253  0.0601 -0.0232
    1W        W55013  18.402   1.018   2.035  0.0731 -0.2431 -0.1955
    1W        W55014  21.380   7.051   7.749  0.1050  0.1735 -0.2985
    1W        W55015  11.170  21.374   7.915 -0.1860  0.5031 -0.1440
    1W        W55016  22.829   6.984   7.961  0.0663 -0.3286 -0.1874
    1W        W55017  11.272  16.640   1.440  0.3865  0.1059  0.0643
    1W        W55018  25.144  21.722   2.292 -0.0411  0.2225 -0.0577
    1W        W55019   6.427   0.823   7.760 -0.0866 -0.0585 -0.1693
    1W        W55020  26.953   6.710   9.433  0.3141 -0.2556  0.0906
    1W        W55021  28.679   9.628   8.530 -0.1489  0.2072 -0.1692
    1W        W55022   7.281  16.093   7.958 -0.1331  0.4454 -0.1026
    1W        W55023   2.103   7.984   7.592 -0.2737 -0.2434  0.2574
    1W        W55024  12.793  17.484   1.283  0.1867  0.0743  0.0797
    1W        W55025   3.264  29.066   2.270 -0.2908 -0.1170 -0.1630
    1W        W55026   6.608  19.673   7.625 -0.1859  0.0355 -0.0769
    1W        W55027  22.573  18.588   7.303  0.0169  0.2654  0.1741
    1W        W55028  20.673  12.320   8.368 -0.3871  0.0338  0.1951
    1W        W55029  22.017   4.765   1.128 -0.1948 -0.2572  0.1017
    1W        W55030  27.917   2.870   8.280 -0.1667  0.1797  0.2764
    1W        W55031   5.215   7.806   9.045  0.2368  0.1862  0.1760
    1W        W55032   4.710   9.327   6.972 -0.1231  0.0686 -0.0090
    1W        W55033  16.335   4.896   7.553 -0.0025 -0.0197 -0.1454
    1W        W55034   1.542  10.559   6.852 -0.0032  0.0320 -0.1951
    1W        W55035   3.970  22.707   0.074  0.0983 -0.1019 -0.1205
    1W        W55036   8.514  28.116   1.326  0.0600 -0.0479  0.2339
    1W        W55037  28.684  14.090   1.348  0.1948 -0.1956  0.1928
    1W        W55038  18.754   5.872   2.632  0.1877  0.1579  0.0830
    1W        W55039   9.627  15.337   0.124 -0.0836  0.2976 -0.0018
    1W        W55040  14.840   4.581   1.892  0.0511 -0.2365 -0.1913
    1W        W55041  10.174  29.030   8.953  0.1562  0.1258  0.1430
    1W        W55042  22.515  26.911   2.824  0.2009  0.1156  0.1308
    1W        W55043  24.189   4.412   2.435 -0.1425  0.1704  0.0719
    1W        W55044   2.240   5.817   2.233  0.0795  0.1583 -0.0172
    1W        W55045   5.421   7.395   7.194  0.1848  0.5289  0.1133
    1W        W55046   1.094  17.290   8.154  0.0211  0.2010 -0.2469
    1W        W55047   0.897   6.849   0.887  0.0595  0.2516 -0.0497
    1W        W55048  28.113  10.439   8.172 -0.0877 -0.0810 -0.4459
    1W        W55049   1.732  17.009   6.250  0.1970 -0.2632 -0.0743
    1W        W55050   9.767  13.701   7.899  0.1095  0.0603 -0.1163
    1W        W55051   7.566   1.526   8.962 -0.0356 -0.2909 -0.1301
    1W        W55052  25.332  24.957   8.463  0.0296  0.0722  0.1339
    1W        W55053   5.276   2.913   0.998 -0.0683  0.1151 -0.2104
    1W        W55054  11.453   5.845   6.724  0.0859  0.1163 -0.1861
    1W        W55055   6.930  22.671   6.596 -0.3282  0.1093  0.4554
    1W        W55056  28.856  15.643   1.579 -0.1442 -0.0713 -0.0423
    1W        W55057   8.104  22.549   7.833 -0.0852 -0.0039  0.1253
    1W        W55058  25.316  27.502   0.081  0.0569 -0.1097 -0.0222
    1W        W55059  11.013  14.839   9.197 -0.0234 -0.4185  0.1555
    1W        W55060   7.137  26.760   8.595 -0.1623  0.3737  0.4289
    1W        W55061  22.233   3.523   7.887 -0.2721 -0.1300 -0.1113
    1W        W55062   8.170  11.112   8.293 -0.1435  0.1369 -0.2234
    1W        W55063  20.170   6.034   0.310 -0.1477  0.3333 -0.5077
    1W        W55064  11.190  11.061   7.102  0.0026  0.0997 -0.1506
    1W        W55065   6.837  17.624   6.242  0.0294 -0.1378  0.0738
    1W        W55066  14.190   6.233   9.160  0.0986 -0.1059 -0.0032
    1W        W55067   1.339  12.633   6.676 -0.0572 -0.2176 -0.2663
    1W        W55068  23.628   6.543   0.796  0.0605 -0.1713 -0.1095
    1W        W55069   7.780  15.230   7.167  0.0229  0.0202  0.1071
    1W        W55070  11.192   7.885   1.178  0.1032 -0.1341  0.0788
    1W        W55071  21.176   2.824   3.371  0.3840  0.0522  0.0953
    1W        W55072  26.409  19.960   2.217  0.0795  0.0146 -0.0174
    1W        W55073   0.899  10.683   1.539  0.1039 -0.0323 -0.1410
    1W        W55074   2.285   8.487   0.484  0.0999 -0.0652 -0.1074
    1W        W55075   1.530   9.004   8.761 -0.1394 -0.0225 -0.0682
    1W        W55076   2.607  24.605   6.563  0.1204  0.3350  0.2290
    1W        W55077   9.529  18.082   1.860  0.1820 -0.1757  0.2307
    1W        W55078   4.143   7.181   8.650 -0.1782 -0.0430 -0.0963
    1W        W55079  14.771  15.940   8.144 -0.0797 -0.0099  0.3205
    1W        W55080  20.558   7.543   1.805  0.1615  0.0586 -0.0276
    1W        W55081  13.390  27.440   7.353 -0.0286 -0.0535 -0.1014
    1W        W55082   4.387  26.616   0.565 -0.0098  0.0469 -0.1093
    1W        W55083  24.958   0.972   9.235  0.0705  0.0429  0.0740
    1W        W55084  27.928  22.189   0.072 -0.3456 -0.0054  0.1037
    1W        W55085  10.023   9.632   1.185  0.2658 -0.3642  0.0411
    1W        W55086  13.455   3.343   1.454  0.0032 -0.0109 -0.0899
    1W        W55087   8.379   6.478   6.949 -0.0264 -0.3301 -0.1405
    1W        W55088  19.334  27.821   3.427  0.0888 -0.3508  0.0864
    1W        W55089   0.393  18.473   8.377 -0.1423  0.0211 -0.2153
    1W        W55090  19.113  14.451   1.124 -0.1116 -0.2518 -0.0536
    1W        W55091  16.277  29.293   6.541  0.0561 -0.2902 -0.0727
    1W        W55092  27.436   1.255   2.616  0.1174 -0.2034  0.0180
    1W        W55093  14.932  24.703   8.660 -0.2083 -0.2310  0.2698
    1W        W55094  25.557   0.028   1.738 -0.1055  0.1147 -0.0080
    1W        W55095  23.895  11.456   0.101 -0.3728 -0.0758  0.2680
    1W        W55096  18.998   4.810   7.408  0.0583  0.3377 -0.2661
    1W        W55097   3.929  10.821   9.395  0.1071 -0.1044  0.1320
    1W        W55098  13.215  18.271   0.038 -0.4129  0.0934  0.1043
    1W        W55099   4.072   9.978   7.337 -0.0063 -0.0172  0.1963
    1W        W55100  22.444  17.219   0.451 -0.3079 -0.4446 -0.0500
    1W        W55101  19.579  18.019   7.902  0.2745 -0.1657 -0.2495
    1W        W55102  27.635  14.916   1.268 -0.3139  0.1163 -0.0128
    1W        W55103   7.420   7.396   2.648 -0.1533  0.0703 -0.1159
    1W        W55104  16.544  19.013   1.404 -0.2282 -0.0920 -0.1480
    1W        W55105  29.174   9.748   7.744  0.0319 -0.2355  0.0062
    1W        W55106  20.610   2.980   9.408  0.2413 -0.0166 -0.0417
    1W        W55107   9.027  13.529   1.436 -0.0532  0.0924  0.2725
    1W        W55108  16.113  21.981   7.114  0.1231 -0.0747 -0.1985
    1W        W55109  20.858  20.930   0.695 -0.1085  0.0015 -0.3675
    1W        W55110   4.827  18.254   7.765  0.2033  0.3577  0.1258
    1W        W55111   6.082  14.399   0.983 -0.0063  0.0868  0.2108
    1W        W55112  23.311  27.380   0.896  0.2245  0.0890  0.0994
    1W        W55113  16.827   3.217   1.681  0.1417  0.1042  0.3409
    1W        W55114  11.018  14.695   1.109  0.1816  0.2795 -0.1572
    1W        W55115  14.323   9.217   9.255  0.0706  0.4791 -0.2229
    1W        W55116  27.492   9.926   6.960  0.0816 -0.1573  0.0142
    1W        W55117  27.081   5.519   6.765 -0.0929 -0.0136 -0.1673
    1W        W55118  28.578  14.027   7.016  0.3437 -0.1510  0.1030
    1W        W55119  10.511   4.790   7.574  0.4524  0.1383 -0.0480
    1W        W55120  28.479   6.762   6.963 -0.2087 -0.2429 -0.1065
    1W        W55121  23.039   9.469   8.294  0.1265 -0.2623  0.2388
    1W        W55122  27.997  24.776   6.951 -0.1623  0.1011 -0.1834
    1W        W55123   7.001   2.470   1.149 -0.2621 -0.2376 -0.1363
    1W        W55124   8.503   4.055   3.446  0.2288 -0.0368  0.1043
    1W        W55125   4.955  22.567   9.202  0.0896  0.3807  0.1352
    1W        W55126  14.617   0.564   2.560 -0.2313 -0.2147  0.0442
    1W        W55127  18.526  13.010   0.191 -0.0216  0.1946 -0.3293
    1W        W55128   3.718  29.380   2.130 -0.2224  0.1021 -0.1644
    1W        W55129  27.505  18.126   5.947 -0.0748 -0.1426  0.3173
    1W        W55130  16.365   0.410   2.666  0.0302  0.0192 -0.0504
    1W        W55131   7.126  19.535   8.817  0.3606  0.0489  0.0575
    1W        W55132  28.077   4.946   0.963  0.2973 -0.0013 -0.0726
    1W        W55133  18.221   7.834   0.943 -0.2547 -0.0104  0.0490
    1W        W55134  22.462   0.873   8.935 -0.3545  0.1236 -0.1979
    1W        W55135  17.884  27.413   7.473  0.0196 -0.2218  0.0816
    1W        W55136  22.930  10.035   9.197  0.0679  0.1896 -0.1082
    1W        W55137  18.606  18.174   0.261  0.1218  0.1093 -0.0714
    1W        W55138   3.366  28.413   7.042 -0.0823  0.0006 -0.1269
    1W        W55139   9.748  27.558   0.916 -0.0156 -0.0166 -0.0057
    1W        W55140  22.501  19.935   2.253 -0.0159  0.1140 -0.3898
    1W        W55141   0.140  10.004   1.571 -0.2095  0.0799  0.0926
    1W        W55142  17.138   6.968   8.442  0.0262  0.0919  0.0916
    1W        W55143  10.536   6.629   8.972 -0.0589  0.1169 -0.1106
    1W        W55144   3.519   4.041   3.301 -0.6341  0.1019  0.0212
    1W        W55145  13.014  19.740   0.362 -0.0023 -0.1092 -0.3634
    1W        W55146  18.719   4.492   2.176  0.1065  0.2355 -0.0818
    1W        W55147  17.610  14.594   7.925  0.1706  0.1388 -0.1047
    1W        W55148  11.467  13.323   8.936  0.2714 -0.0761  0.0423
    1W        W55149  26.391  15.049   9.192  0.0421  0.0730  0.0381
    1W        W55150  18.556   5.845   2.159 -0.0360  0.1141 -0.1258
    1W        W55151  16.681  11.254   0.528 -0.1815 -0.5258 -0.4702
    1W        W55152  21.039   2.026   1.549  0.0351  0.1672  0.0054
    1W        W55153  19.029  23.854   2.185 -0.0179 -0.2953  0.0644
    1W        W55154  22.653  11.007   9.444  0.0180 -0.0235 -0.1790
    1W        W55155  16.430   1.881   7.768 -0.0248  0.1151  0.1438
    1W        W55156  20.103  20.407   8.610  0.1964  0.0401 -0.1922
    1W        W55157   2.433  20.018   1.398 -0.2409 -0.1608  0.0266
    1W        W55158  13.289  25.941   7.413  0.2482  0.0924  0.1788
    1W        W55159  25.079   7.627   0.812  0.0815  0.0342  0.2849
    1W        W55160  15.276  14.222   0.554  0.1482 -0.1814 -0.1427
    1W        W55161  23.610  18.993   9.361  0.0895  0.0279 -0.1562
    1W        W55162   0.037   9.385   0.884 -0.0183 -0.2398 -0.0895
    1W        W55163  26.291   4.092   7.348 -0.2477 -0.2868 -0.0534
    1W        W55164  10.183  26.830   0.808  0.1401  0.1360 -0.1013
    1W        W55165  26.206  22.045   2.917 -0.3628 -0.0110 -0.0822
    1W        W55166  13.853  22.372   1.891  0.1531 -0.2106  0.2314
    1W        W55167  21.795  22.419   1.485 -0.3687 -0.1263 -0.3453
    1W        W55168   2.312   8.474   8.942  0.1281  0.0712  0.1387
    1W        W55169   6.122  16.131   6.008  0.1841  0.3199 -0.3202
    1W        W55170  27.924  17.203   8.591 -0.2653  0.2054  0.1764
    1W        W55171  11.908  20.489   9.200 -0.0857 -0.1320  0.2289
    1W        W55172   3.816  20.487   0.680 -0.0164  0.0178  0.0082
    1W        W55173   5.562   8.651   0.698 -0.0890 -0.2860 -0.0746
    1W        W55174  15.628  15.519   8.927  0.3759 -0.1998 -0.0806
    1W        W55175  22.065  22.409   0.332 -0.2348  0.1359  0.1685
    1W        W55176   9.420   4.052   1.250  0.2753 -0.2237 -0.0354
    1W        W55177  15.886  22.318   1.463 -0.0653 -0.1541 -0.0567
    1W        W55178  19.275   8.015   6.844 -0.0783 -0.1881  0.0057
    1W        W55179  12.217  28.603   2.807 -0.1732  0.2623 -0.2684
    1W        W55180  15.562  29.818   1.766  0.0720 -0.2202 -0.1243
    1W        W55181   4.818  27.042   2.299 -0.0711  0.1212  0.1267
    1W        W55182   7.867   0.595   0.228 -0.3628 -0.0976  0.1854
    1W        W55183   3.274  14.141   8.968 -0.0139  0.0502  0.0691
    1W        W55184  24.022   6.938   7.580 -0.2156  0.1582  0.0486
    1W        W55185  20.018  21.374   2.370  0.2010 -0.0518 -0.2712
    1W        W55186   0.638  23.427   1.856 -0.2352 -0.0128 -0.1864
    1W        W55187  13.744  23.233   1.865 -0.1913 -0.2837  0.0950
    1W        W55188   0.690   4.192   2.853 -0.1532 -0.0313  0.0007
    1W        W55189  14.719  16.121   7.283  0.1542  0.1401  0.2866
    1W        W55190   4.952  23.397   8.637  0.1092 -0.1579 -0.2116
    1W        W55191  22.895  24.699   9.274  0.0380 -0.0301  0.2086
    1W        W55192   3.813   7.113   0.500  0.0255  0.0856  0.1083
    1W        W55193  26.178  14.190   0.609  0.3167  0.3059 -0.3282
    1W        W55194  22.364  21.451   7.533  0.0131  0.2693 -0.2572
    1W        W55195  19.427  10.129   6.341 -0.1092  0.2674  0.3870
    1W        W55196  17.720  24.807   0.538  0.1769 -0.0752 -0.1269
    1W        W55197  21.399   0.578   7.516 -0.1708 -0.2855 -0.2290
    1W        W55198  24.373  15.821   9.020 -0.0190  0.1285  0.0501
    1W        W55199  15.512   0.589   8.716  0.2295 -0.2050  0.0500
    1W        W55200  20.703  22.882   1.380 -0.0008  0.1131 -0.1457
    1W        W55201   7.993  23.825   7.853  0.4831  0.2331  0.0774
    1W        W55202   3.944  14.284   2.351  0.2665  0.3374 -0.0223
    1W        W55203   4.984   2.918   7.972 -0.1851 -0.1065 -0.0980
    1W        W55204  10.903  12.435   2.358 -0.1521  0.4605 -0.0186
    1W        W55205  26.994   8.633   7.832 -0.1487 -0.0913  0.2524
    1W        W55206   6.704  19.629   9.008 -0.0780 -0.5613  0.1365
    1W        W55207  13.530  13.796   7.261  0.1391  0.0742  0.1322
    1W        W55208   4.248   8.237   6.545 -0.0874  0.3619 -0.2207
    1W        W55209  28.955  18.983   1.609  0.1993  0.1837 -0.1555
    1W        W55210   3.305  18.194   2.545 -0.0805 -0.1561  0.0405
    1W        W55211  16.173   0.022   6.801 -0.4146  0.0997  0.0122
    1W        W55212  10.485  26.083   1.236 -0.1234  0.4542 -0.1470
    1W        W55213   7.181  24.855   7.493  0.2335  0.2112  0.0213
    1W        W55214   6.024   1.249   0.385 -0.1551 -0.0345  0.0880
    1W        W55215  24.323   7.354   8.528  0.0263 -0.1144 -0.0171
    1W        W55216   4.491  23.461   1.614 -0.0659  0.1971 -0.1390
    1W        W55217   5.326  15.283   1.489 -0.2032  0.3896 -0.2523
    1W        W55218  17.693   5.607   6.427 -0.4576 -0.1311 -0.1633
    1W        W55219  23.774   4.558   9.104  0.1243  0.2149 -0.0038
    1W        W55220  16.702  28.966   7.261  0.0366 -0.1222  0.0190
    1W        W55221   2.221  22.587   0.781 -0.1929  0.0558  0.1844
    1W        W55222   0.759   5.446   6.314 -0.2992 -0.1734 -0.1331
    1W        W55223  21.173   3.660   6.794  0.1392 -0.4373 -0.1727
    1W        W55224  24.488  10.077   2.661 -0.2361 -0.2842  0.2306
    1W        W55225  27.076   6.216   2.934 -0.0194  0.2408  0.2297
    1W        W55226  19.824  11.737   1.363  0.0255 -0.2106  0.0235
    1W        W55227  13.920   4.891   0.847  0.1253  0.0772  0.0959
    1W        W55228   0.755  11.572   8.777  0.2022  0.1025 -0.1802
    1W        W55229  14.512   8.117   8.961 -0.1536  0.0866 -0.0978
    1W        W55230  21.649  16.567   1.737 -0.0978 -0.0008  0.0104
    1W        W55231   5.924   2.214   0.177 -0.2438 -0.1911 -0.0945
    1W        W55232   7.041  26.782   1.458 -0.2076  0.1878  0.0826
    1W        W55233  13.660  18.508   8.421  0.0144  0.0478  0.0249
    1W        W55234  14.008  21.564   1.371  0.0854  0.1130  0.3025
    1W        W55235   3.217   5.472   3.013  0.1588 -0.3212  0.2485
    1W        W55236  28.008  21.445   6.969 -0.3789 -0.2519  0.2017
    1W        W55237  20.270   8.892   1.049 -0.0954  0.0210  0.0906
    1W        W55238   6.204  11.811   7.789  0.3623  0.1577  0.0679
    1W        W55239  23.119  12.733   7.071  0.2004  0.0108  0.1078
    1W        W55240  23.902   1.592   2.983  0.0739  0.0469  0.0192
    1W        W55241  17.957  13.202   0.002  0.1540 -0.1337  0.2514
    1W        W55242  10.862  11.781   2.095 -0.2984 -0.0148  0.0216
    1W        W55243  16.609  15.092   1.166 -0.0775 -0.0056 -0.0618
    1W        W55244  18.474   3.319   1.258 -0.0193  0.2183 -0.2119
    1W        W55245   5.899  20.885   8.684 -0.3946 -0.3113 -0.1978
    1W        W55246  12.982  20.825   8.818  0.2021 -0.1753  0.1743
    1W        W55247  19.756  27.670   3.000  0.0484  0.0571 -0.2466
    1W        W55248   0.021   7.275   3.220 -0.1387 -0.0496 -0.1766
    1W        W55249  13.034  22.977   8.239 -0.1747  0.1496  0.0139
    1W        W55250  17.393   8.185   7.763  0.1568  0.2366  0.0853
    1W        W55251  18.780   7.040   6.353 -0.0107  0.1602  0.3590
    1W        W55252  27.123  17.128   6.022  0.0262  0.1848  0.2087
    1W        W55253  12.517  29.542   2.724  0.0349 -0.3206 -0.0549
    1W        W55254  25.522  22.211   1.279  0.0156  0.3675  0.3145
    1W        W55255  19.004  21.948   0.328 -0.0841 -0.0609 -0.1731
    1W        W55256  13.014   3.722   8.881  0.3599  0.0281  0.0327
    1W        W55257   5.797  22.997   6.853  0.0032 -0.0544  0.0982
    1W        W55258   4.289  12.888   1.368 -0.1107  0.0367  0.0211
    1W        W55259   7.871  13.838   1.239  0.2096  0.1500  0.1244
    1W        W55260  11.641  12.797   0.258  0.0176  0.1341  0.0510
    1W        W55261   0.755  19.204   1.044  0.0403  0.2328 -0.2359
    1W        W55262  18.948   1.116   0.811  0.1546 -0.1781 -0.0708
    1W        W55263  11.887  21.978   0.397  0.1062  0.1761  0.0106
    1W        W55264  10.987  15.256   8.902  0.0784  0.1480  0.0363
    1W        W55265   9.987  22.477   8.628 -0.2364 -0.1761 -0.1527
    1W        W55266  25.424  14.069   1.014 -0.0836 -0.0382  0.2393
    1W        W55267  24.039   8.448   9.398  0.3461  0.0536  0.1417
    1W        W55268   4.559   5.078   3.571 -0.0449 -0.1179 -0.0205
    1W        W55269  15.085   7.835   8.125  0.2009 -0.2340 -0.2711
    1W        W55270  23.602   4.044   8.094  0.3841  0.1163  0.2591
    1W        W55271   2.953  19.017   5.813 -0.0640 -0.0756  0.0594
    1W        W55272  24.618  14.422   0.234 -0.0569 -0.2716 -0.0816
    1W        W55273  11.167   5.925   1.960  0.0836 -0.2423 -0.0382
    1W        W55274   7.033   0.196   0.377  0.0308 -0.3043  0.4016
    1W        W55275  18.635  29.365   9.325 -0.3165 -0.2512  0.1504
    1W        W55276  14.033  11.214   9.114  0.1066 -0.2015  0.0875
    1W        W55277   6.736   9.455   1.463  0.0216  0.2279 -0.1689
    1W        W55278  16.245   6.185   6.656  0.1416 -0.0909 -0.2199
    1W        W55279   9.815  21.350   6.372 -0.0401  0.1796  0.0824
    1W        W55280  28.697   6.172   7.126  0.0533  0.0711  0.0243
    1W        W55281  27.763   2.211   1.456 -0.1423  0.2534  0.0368
    1W        W55282   3.310  12.853   2.802 -0.3083  0.1251 -0.0222
    1W        W55283  23.583  25.409   9.214  0.1154 -0.0400  0.0492
    1W        W55284   6.019   2.003   8.164 -0.3967 -0.0924 -0.2656
    1W        W55285  18.879  14.034   8.583  0.0067  0.2215 -0.3049
    1W        W55286   5.631  11.248   1.984  0.2642 -0.0340  0.3039
    1W        W55287   5.076  29.038   7.571  0.0392 -0.1115  0.2887
    1W        W55288  24.192  28.018   3.577 -0.2580  0.2136 -0.1160
    1W        W55289   4.756  23.212   1.930 -0.0977 -0.2307  0.1273
    1W        W55290  22.217  28.870   0.843 -0.0016 -0.0120  0.2226
    1W        W55291  13.335   8.172   1.588  0.0210 -0.0521  0.1751
    1W        W55292  13.130  21.428   1.346 -0.2074 -0.0615  0.0968
    1W        W55293   4.566   7.673   0.944 -0.0115  0.0972  0.0023
    1W        W55294  19.972   9.408   8.104  0.0228  0.0605  0.3363
    1W        W55295   4.363  20.096   9.392 -0.0621 -0.3244 -0.1802
    1W        W55296  10.453  27.355   7.321 -0.0303  0.0247 -0.1369
    1W        W55297  14.461  21.840   1.278 -0.1127  0.2547 -0.0895
    1W        W55298   9.041  11.887   3.524  0.0310  0.2689  0.0103
    1W        W55299  26.865  22.727   3.079  0.1340 -0.1915 -0.1431
    1W        W55300  11.958   1.060   3.114  0.1877  0.3787  0.1384
    1W        W55301  15.078  14.824   6.580  0.2170  0.1718  0.0111
    1W        W55302  16.813  28.602   8.331 -0.3664 -0.1697  0.1425
    1W        W55303  27.531   1.211   6.340 -0.1627  0.0097 -0.1991
    1W        W55304   8.198  17.777   6.354  0.0434  0.2092 -0.0732
    1W        W55305  13.692  29.780   1.793 -0.0370 -0.2475 -0.1051
    1W        W55306  26.177  16.799   6.711 -0.2942  0.4083 -0.0505
    1W        W55307  20.431  14.524   6.548 -0.0824 -0.2357 -0.1025
    1W        W55308  17.390   1.210   1.064  0.1398  0.0595 -0.1205
    1W        W55309  21.689   1.954   8.401  0.3202 -0.0091 -0.0485
    1W        W55310  29.261  25.155   0.596 -0.1012 -0.0838  0.0240
    1W        W55311   9.966   8.710   2.645  0.2906  0.0704  0.0781
    1W        W55312   4.244  21.547   8.316  0.0631 -0.2013  0.1380
    1W        W55313  17.180  29.139   7.070  0.1565  0.1264 -0.0422
    1W        W55314   1.650  14.854   6.357 -0.0282 -0.0581  0.0707
    1W        W55315  10.643  27.443   6.395  0.1363  0.1036  0.1845
    1W        W55316  13.047  29.662   7.988  0.0705  0.1035  0.2402
    1W        W55317   4.091   8.390   9.352 -0.0094 -0.0502  0.1454
    1W        W55318  24.264  16.747   2.193 -0.1180  0.1130 -0.3626
    1W        W55319  25.057   3.213   2.822 -0.2626 -0.1168  0.0118
    1W        W55320   1.098   1.021   1.205 -0.1228  0.0855  0.2677
    1W        W55321   9.097  15.386   0.209  0.1682 -0.1619  0.1190
    1W        W55322  18.834  11.808   1.268 -0.1320  0.0847  0.0641
    1W        W55323  24.081   0.231   0.644  0.1075 -0.1627  0.0970
    1W        W55324  13.685  26.584   2.695  0.0261  0.5691 -0.0164
    1W        W55325   1.417  16.904   2.495 -0.0368  0.0342  0.0919
    1W        W55326  22.318   4.347   1.347  0.0439 -0.0705  0.0223
    1W        W55327  13.341  21.986   6.883 -0.1497  0.1534  0.0374
    1W        W55328  28.220  27.295   8.660  0.1479  0.2850 -0.2396
    1W        W55329   5.442   0.960   3.525 -0.3639  0.0928  0.1379
    1W        W55330  26.134   6.772   0.329  0.1027 -0.2299  0.0475
    1W        W55331   9.493   6.269   2.840  0.4023 -0.0597 -0.1516
    1W        W55332  28.735  17.662   7.961 -0.1508  0.3453  0.2125
    1W        W55333   3.972   1.398   9.051 -0.0544  0.1694 -0.0429
    1W        W55334   2.535  10.865   8.581  0.0391 -0.0211 -0.0713
    1W        W55335   3.455   0.498   0.628  0.0418 -0.2917  0.4133
    1W        W55336   9.288  18.658   0.939  0.0495  0.0769  0.0701
    1W        W55337   7.973  20.679   6.743  0.2086  0.2147  0.0216
    1W        W55338   7.708   2.672   0.915 -0.0862  0.1339 -0.0029
    1W        W55339  17.226  17.075   2.161  0.1298 -0.0297 -0.0735
    1W        W55340   5.811   6.581   7.414  0.0220 -0.1524  0.1934
    1W        W55341  26.534  27.326   0.585  0.1535 -0.1681  0.0366
    1W        W55342  23.843  22.528   7.669 -0.2867  0.0574 -0.2143
    1W        W55343  28.387  25.729   8.614  0.1802  0.0359 -0.0746
    1W        W55344  25.061   0.233   2.022 -0.0418  0.0706 -0.0616
    1W        W55345  10.741  28.232   2.636 -0.3044  0.0335  0.0650
    1W        W55346  20.354   5.542   7.313 -0.3017 -0.0738  0.2554
    1W        W55347  12.340   8.317   3.194  0.2653  0.0498 -0.0809
    1W        W55348  18.132  22.997   1.982  0.0653 -0.1106  0.0063
    1W        W55349   2.890  15.539   6.683 -0.1343 -0.1201  0.1420
    1W        W55350  10.566  13.712   7.586 -0.4674  0.2276 -0.2811
    1W        W55351   8.296  12.071   8.205  0.1852  0.0027  0.2020
    1W        W55352  13.258  20.989   7.953  0.1328 -0.0578 -0.5725
    1W        W55353   4.921   7.467   7.308 -0.0360 -0.3055  0.1101
    1W        W55354   1.694  15.156   1.547  0.0956  0.1930  0.0816
    1W        W55355  13.642  28.969   7.538  0.1679  0.1146 -0.2407
    1W        W55356  23.711  28.918   0.074 -0.3753  0.2699 -0.1343
    1W        W55357   1.857   8.217   3.125 -0.0732 -0.1068 -0.1128
    1W        W55358  12.722  19.166   7.930  0.1043 -0.1411 -0.1202
    1W        W55359  19.338  20.687   6.950  0.0231 -0.0434 -0.0067
    1W        W55360  29.030   8.963   2.507 -0.3066 -0.1114 -0.0815
    1W        W55361  18.783  26.952   1.636 -0.0635  0.3449 -0.1950
    1W        W55362  18.419  17.957   0.666  0.0536 -0.0094 -0.0412
    1W        W55363   5.333   8.055   0.021  0.0517 -0.0153  0.0137
    1W        W55364   3.650  17.278   7.471  0.1703 -0.1525  0.2262
    1W        W55365  20.165  20.924   7.850  0.2029 -0.0053  0.0228
    1W        W55366  20.644  28.058   2.678 -0.0368 -0.0965 -0.2799
    1W        W55367   1.735   1.462   2.387 -0.2179 -0.1311 -0.0822
    1W        W55368   4.050   2.812   6.820 -0.1073 -0.1512 -0.1511
    1W        W55369  26.332   4.587   0.910 -0.0752  0.0219  0.2271
    1W        W55370   3.864  25.701   6.255  0.3698 -0.1215  0.0289
    1W        W55371  25.942  23.577   1.645 -0.0137 -0.1979  0.1395
    1W        W55372   9.536  18.567   1.741  0.0606 -0.2194 -0.0822
    1W        W55373  26.602  15.596   6.983 -0.1763  0.0504 -0.1268
    1W        W55374   2.256  28.837   3.510 -0.0901 -0.0942  0.1283
    1W        W55375  11.695  27.158   0.565  0.0458  0.2136  0.0890
    1W        W55376   4.081  12.287   0.855  0.2487 -0.2312 -0.0261
    1W        W55377   4.726  22.603   8.255  0.3112  0.6613 -0.0339
    1W        W55378   2.252   4.679   8.250  0.3126  0.1372 -0.1502
    1W        W55379  14.198  11.413   7.559  0.2304 -0.0807  0.2021
    1W        W55380  12.927   3.665   1.911 -0.0076  0.3525 -0.1713
    1W        W55381   6.060  10.737   3.030 -0.0189  0.0211 -0.0648
    1W        W55382  17.711  25.468   1.822 -0.0341 -0.1131 -0.0791
    1W        W55383  26.950   9.291   1.937  0.0302  0.3927  0.0893
    1W        W55384  21.417  20.281   1.044 -0.1027  0.0381 -0.0145
    1W        W55385  20.207  28.439   8.773 -0.1794 -0.1702  0.1947
    1W        W55386  17.738  20.594   8.719 -0.0946  0.0701 -0.3091
    1W        W55387  16.077   5.607   0.119  0.0540  0.3211  0.0224
    1W        W55388  16.749   8.179   7.774 -0.1515  0.3046 -0.0250
    1W        W55389  18.434  25.168   8.321 -0.1733 -0.0692  0.0365
    1W        W55390  21.366  25.272   6.371 -0.2151  0.2629  0.0662
    1W        W55391   8.053  29.011   7.795 -0.1897  0.3184  0.0421
    1W        W55392  24.728  24.923   6.748 -0.3318  0.0624 -0.3775
    1W        W55393   2.603   6.994   2.011 -0.0354  0.1101  0.4034
    1W        W55394   3.721   7.744   7.413  0.1428 -0.1144  0.2343
    1W        W55395  21.843  13.383   1.871  0.0386 -0.0859  0.0057
    1W        W55396   5.240  10.151   2.060  0.0928  0.0481 -0.1760
    1W        W55397  17.938   2.466   1.837 -0.1102 -0.1324  0.0736
    1W        W55398  15.463   8.581   7.139 -0.0913 -0.2102 -0.0800
    1W        W55399  17.294  29.728   6.434  0.1764 -0.3932  0.3036
    1W        W55400  20.674  24.839   2.445 -0.0007  0.0082  0.0438
    1W        W55401  28.429  11.534   8.262  0.0181  0.1415 -0.1261
    1W        W55402  10.202   0.920   2.925  0.1051 -0.0698 -0.0437
    1W        W55403  16.157  10.996   8.799 -0.0331 -0.2878  0.1029
    1W        W55404   4.817   3.377   3.696  0.0396 -0.2186 -0.0949
    1W        W55405  24.561  16.344   8.742  0.1800 -0.0398 -0.2623
    1W        W55406  21.080  13.701   7.892  0.1077  0.3371 -0.3974
    1W        W55407  18.697  14.467   6.101  0.1070  0.0089  0.2388
    1W        W55408   8.199  29.329   8.275 -0.0114  0.0658 -0.3404
    1W        W55409   1.062   5.875   6.437 -0.2025 -0.2110 -0.0795
    1W        W55410   1.388   7.197   1.201 -0.0446 -0.1813 -0.0611
    1W        W55411  29.154   1.856   9.419  0.0394 -0.0233 -0.3543
    1W        W55412  29.080  13.668   8.303 -0.0369  0.0126 -0.2604
    1W        W55413  29.482  19.257   7.208  0.0482  0.1191  0.2290
    1W        W55414  22.231   4.910   7.691  0.0555 -0.2717 -0.2883
    1W        W55415  26.417  11.306   8.307  0.0551  0.4350 -0.3401
    1W        W55416  10.495   2.138   8.264 -0.2940  0.0253 -0.0418
    1W        W55417  29.504  12.816   5.782  0.0811 -0.3068  0.0423
    1W        W55418  20.266  25.306   8.429  0.0123 -0.0885  0.0096
    1W        W55419  18.084  18.613   0.425 -0.1631 -0.1057 -0.1797
    1W        W55420   3.797  22.782   1.895  0.3375 -0.0828  0.0353
    1W        W55421   5.986   0.557   1.376 -0.1983  0.0049  0.0046
    1W        W55422  21.590  14.770   9.456  0.5654  0.0973 -0.3461
    1W        W55423  18.999  17.974   8.024  0.1447  0.3014  0.2133
    1W        W55424   6.296  18.328   7.323  0.0412  0.0697 -0.1630
    1W        W55425  23.567   7.427   0.991  0.3195  0.3775 -0.0868
    1W        W55426  16.363   9.647   7.427 -0.2982 -0.0411  0.0576
    1W        W55427  27.060  17.985   7.239 -0.0855 -0.0931  0.1299
    1W        W55428   1.900  13.659   6.065 -0.0669  0.2010  0.2226
    1W        W55429  12.971   8.726   0.880 -0.1422  0.3511  0.2618
    1W        W55430  11.478  28.512   7.959  0.1983  0.0335  0.2954
    1W        W55431   7.901   2.920   0.435  0.4280  0.3159  0.1373
    1W        W55432  18.356  26.492   0.465  0.0766 -0.1669  0.0196
    1W        W55433   0.306  28.206   9.393  0.1995  0.2609  0.1168
    1W        W55434  20.100  27.441   8.026 -0.0705  0.1040 -0.0735
    1W        W55435  23.513  11.703   9.359 -0.0085  0.1063 -0.1958
    1W        W55436  21.530  11.415   7.184 -0.1945  0.0284 -0.1214
    1W        W55437  15.354  27.506   7.888 -0.0345 -0.2520 -0.0290
    1W        W55438   6.630  11.873   8.693 -0.3043  0.2180  0.4111
    1W        W55439  19.893  10.518   8.364  0.0677  0.2611  0.1553
    1W        W55440  11.730   1.293   6.740  0.0300 -0.2083  0.1971
    1W        W55441   4.758  27.817   2.624  0.3866  0.1883  0.1740
    1W        W55442   0.830   3.773   1.740 -0.0468 -0.3060  0.1566
    1W        W55443  19.416   3.458   8.700 -0.1200 -0.0890  0.0231
    1W        W55444  25.321  18.422   6.763  0.2245 -0.2094  0.2653
    1W        W55445  15.207  24.125   7.547  0.0250  0.0987 -0.0990
    1W        W55446  20.153   1.614   1.551  0.2069 -0.0927 -0.3474
    1W        W55447  28.092   1.866   1.215  0.0697  0.0505 -0.0551
    1W        W55448  20.236  25.876   8.563 -0.1709 -0.2694  0.0112
    1W        W55449   4.214  12.696   9.347  0.1645 -0.1386 -0.2428
    1W        W55450  24.052  25.062   0.458 -0.1080 -0.0133  0.2364
    1W        W55451  17.699  16.803   0.327 -0.2635  0.1927 -0.0450
    1W        W55452  22.747   9.093   1.974  0.0925  0.1435 -0.0160
    1W        W55453  26.884   0.657   8.363  0.3677 -0.1073 -0.0452
    1W        W55454  20.462  21.804   0.056  0.2686  0.0908 -0.2870
    1W        W55455   6.890  23.151   7.610 -0.2985 -0.2218 -0.0840
    1W        W55456   6.697   9.497   0.404 -0.0034 -0.1127 -0.0334
    1W        W55457   2.060  28.260   2.473 -0.0369 -0.1770 -0.0332
    1W        W55458  26.866   3.344   0.027  0.5542  0.0662 -0.2048
    1W        W55459   6.436   1.914   1.791  0.0203  0.0178 -0.2284
    1W        W55460  24.988  15.482   6.050  0.1753  0.0865 -0.0849
    1W        W55461  18.313   0.810   7.430 -0.1534 -0.1902 -0.1039
    1W        W55462  26.438  18.931   0.106 -0.2244 -0.2280 -0.1796
    1W        W55463  27.335  17.514   6.520 -0.2225 -0.0621  0.0773
    1W        W55464  26.626   6.681   2.417  0.2506  0.4965 -0.1650
    1W        W55465  20.230  13.953   8.766  0.0328 -0.1220 -0.0019
    1W        W55466  16.096  24.109   7.665  0.4210 -0.1344 -0.1141
    1W        W55467   5.825   6.200   1.759 -0.1874 -0.1632  0.1836
    1W        W55468  11.780  25.121   8.641  0.1277 -0.1077  0.5137
    1W        W55469  28.853  12.135   6.942 -0.0172 -0.3797 -0.1551
    1W        W55470   7.674   6.782   8.981 -0.0017 -0.3276 -0.1102
    1W        W55471   2.411   9.831   6.934  0.0858  0.1147 -0.4821
    1W        W55472   3.520   5.190   2.259 -0.1471  0.0952 -0.0543
    1W        W55473   7.764  13.480   1.546  0.2318  0.0162 -0.1559
    1W        W55474  18.510   7.122   6.741  0.1823  0.1053  0.2021
    1W        W55475   5.500  27.601   9.385 -0.1636  0.1120 -0.1166
    1W        W55476  25.095  11.384   0.607  0.1379 -0.0539 -0.1737
    1W        W55477  16.635  17.802   9.420 -0.0469  0.3651  0.2108
    1W        W55478  17.328   1.902   8.227 -0.0385 -0.0026  0.1618
    1W        W55479   3.504  17.911   6.784  0.0510 -0.2900  0.0909
    1W        W55480  11.770  14.510   1.763  0.0485 -0.1810 -0.0507
    1W        W55481   4.468  29.773   8.582 -0.5270  0.1138 -0.0212
    1W        W55482   9.960   8.860   3.142  0.1787  0.1395  0.1334
    1W        W55483   2.731  25.392   9.198 -0.1215 -0.0298  0.0302
    1W        W55484  26.241  21.367   1.186 -0.2563 -0.1247  0.1965
    1W        W55485  12.108   6.393   8.324  0.0174 -0.1298  0.1340
    1W        W55486  22.211   6.971   1.231  0.0812  0.2472  0.1732
    1W        W55487  17.198  11.559   7.427  0.0773  0.0921  0.1350
    1W        W55488   8.582  17.881   8.904  0.2287  0.4515 -0.2406
    1W        W55489  27.605  10.055   1.991  0.1260  0.3269  0.1203
    1W        W55490  13.614  26.707   0.868 -0.0933 -0.0404 -0.1524
    1W        W55491  23.207   9.014   0.517 -0.1300 -0.1083  0.3396
    1W        W55492  13.950  15.990   1.964 -0.1008 -0.4130 -0.1511
    1W        W55493  24.353   3.067   0.745  0.1464  0.1401  0.0451
    1W        W55494  14.164   8.868   7.245  0.2029  0.1208 -0.2733
    1W        W55495   3.639   6.925   0.973  0.0210 -0.0126  0.0961
    1W        W55496  24.392  27.893   3.107 -0.0618  0.3627  0.2878
    1W        W55497  28.142   4.398   0.456 -0.2291 -0.1805 -0.3440
    1W        W55498  18.619  28.354   0.123 -0.2281  0.3380  0.0538
    1W        W55499  19.845   2.136   6.960 -0.1480  0.2066  0.0813
    1W        W55500   0.882  16.791   8.001 -0.1739 -0.4373  0.1506
    1W        W55501   2.647   1.702   7.038 -0.0771  0.1357 -0.3530
    1W        W55502  14.315  24.521   7.687 -0.2772  0.0398 -0.0799
    1W        W55503   3.358  19.663   7.824  0.1279  0.0608 -0.1668
    1W        W55504  20.774   9.172   6.663  0.0321 -0.1639 -0.1870
    1W        W55505  21.011  16.221   1.283  0.1958  0.3302  0.1716
    1W        W55506   3.197  11.904   8.842 -0.1966  0.1202 -0.0083
    1W        W55507  19.790   0.197   1.582  0.1407 -0.3479  0.1829
    1W        W55508  24.188  15.516   0.582 -0.0893  0.1560  0.2641
    1W        W55509  11.270  22.251   2.254  0.1138  0.0260 -0.0858
    1W        W55510  26.313  12.901   7.753 -0.2445 -0.2988  0.2862
    1W        W55511  27.470  11.186   6.661 -0.0377 -0.1997  0.0568
    1W        W55512  26.675  29.256   8.606 -0.1029 -0.0056  0.0931
    1W        W55513  22.972  16.308   7.431  0.1766 -0.1103 -0.1711
    1W        W55514   3.022   0.038   8.000  0.1490  0.0255 -0.0446
    1W        W55515  19.258  22.220   9.350 -0.1783 -0.1253  0.0182
    1W        W55516  18.085   1.938   1.994  0.0675  0.3682  0.0747
    1W        W55517  17.511  22.811   3.446 -0.3021  0.0767 -0.0409
    1W        W55518  22.874  27.115   2.550  0.0836 -0.0664  0.2431
    1W        W55519  14.574  13.267   9.401  0.0736 -0.1050  0.0424
    1W        W55520   4.742  21.054   0.010 -0.0470 -0.0958 -0.3970
    1W        W55521  16.987  20.401   7.668  0.1870  0.0247 -0.0563
    1W        W55522   7.861   9.264   1.432 -0.0843  0.0486 -0.1178
    1W        W55523  22.337  16.892   0.866 -0.0080 -0.1513  0.1717
    1W        W55524  25.767   3.678   6.533  0.1051 -0.3166 -0.0637
    1W        W55525  18.586  10.545   6.734 -0.1382  0.1906  0.0896
    1W        W55526  16.205  16.234   6.901  0.0509 -0.1767 -0.0223
    1W        W55527   4.406   7.192   7.404  0.1251 -0.1112 -0.0329
    1W        W55528  20.486  15.985   7.607 -0.0057 -0.2605 -0.1169
    1W        W55529  23.450  24.361   0.923  0.1790  0.2775  0.1952
    1W        W55530  11.411   8.726   0.295 -0.0934  0.0686  0.4008
    1W        W55531  26.962  14.133   7.620 -0.0840  0.1695  0.2162
    1W        W55532  21.543  18.333   7.977  0.0879 -0.2603  0.2131
    1W        W55533   0.776  11.174   1.413 -0.0002  0.0432 -0.1907
    1W        W55534  14.008   5.355   7.701  0.1141 -0.1444 -0.1724
    1W        W55535   4.380  11.819   2.379  0.0564 -0.0252  0.0971
    1W        W55536   9.107  10.574   0.140 -0.2047  0.1057 -0.0732
    1W        W55537  25.840   8.095   9.388 -0.2241 -0.1906  0.2138
    1W        W55538  28.439  21.868   1.898 -0.0159  0.1953 -0.0514
    1W        W55539   5.257  20.711   0.778 -0.2190 -0.0754  0.3668
    1W        W55540  16.064  17.561   7.193  0.0659  0.0274  0.2947
    1W        W55541   3.787   0.857   0.875  0.0381 -0.4482 -0.0154
    1W        W55542  21.417   8.159   6.208  0.1033 -0.1380  0.2895
    1W        W55543  20.037  14.300   1.212 -0.0011  0.2064 -0.1713
    1W        W55544  16.361  27.465   3.598  0.3189 -0.0727  0.2311
    1W        W55545  17.940   5.955   1.287  0.0307  0.3398 -0.2498
    1W        W55546  22.135   9.186   0.460 -0.4373  0.0844 -0.0688
    1W        W55547  14.865  25.214   2.512  0.1512 -0.0987 -0.1888
    1W        W55548   1.364   6.012   3.111  0.1038 -0.0462  0.2029
    1W        W55549   8.108  15.997   1.986  0.0618 -0.0794 -0.1126
    1W        W55550   8.818  12.262   3.251 -0.1847 -0.0776  0.1754
    1W        W55551  23.117  16.557   8.218 -0.0994  0.0710 -0.2499
    1W        W55552  17.380  13.181   0.907 -0.2043  0.2854 -0.0968
    1W        W55553   3.695   2.040   2.794  0.0430 -0.2366  0.1264
    1W        W55554  20.003  22.975   2.115 -0.0494 -0.0045 -0.1867
    1W        W55555   8.778   2.839   2.281 -0.3234 -0.0134  0.0205
    1W        W55556  14.050  15.548   0.836 -0.1151  0.0362 -0.0963
    1W        W55557  23.486   5.842   8.177  0.1039 -0.1201  0.0957
    1W        W55558  16.213  19.542   2.132 -0.2909  0.3884 -0.0375
    1W        W55559   1.313  26.233   1.123 -0.0013  0.0223 -0.0152
    1W        W55560   8.923   2.409   8.604  0.3437 -0.0305 -0.1060
    1W        W55561  14.151  24.363   0.355 -0.0914  0.3265 -0.0252
    1W        W55562  23.834   3.726   2.976  0.2269 -0.0556  0.0964
    1W        W55563  21.969  23.160   0.191  0.0358 -0.2279  0.0154
    1W        W55564  14.078  16.984   8.778  0.2061 -0.0755 -0.0089
    1W        W55565  21.119   7.479   0.239 -0.2223 -0.0102 -0.2358
    1W        W55566  27.140  10.978   8.848  0.0942 -0.4035  0.0749
    1W        W55567   5.716  16.459   1.287  0.3888  0.1803 -0.0744
    1W        W55568  15.694   3.436   8.418 -0.0878 -0.0177 -0.0014
    1W        W55569  10.546  15.418   9.104 -0.2679 -0.1306 -0.1261
    1W        W55570   5.098  29.373   7.102  0.3852  0.1634 -0.2344
    1W        W55571  13.716   9.344   8.726 -0.2560 -0.1794  0.1500
    1W        W55572   8.216  14.968   7.137  0.1139  0.0496 -0.1424
    1W        W55573   8.600  16.429   6.710  0.1316  0.3394 -0.1245
    1W        W55574   7.666  12.894   2.548  0.1554 -0.1014 -0.0189
    1W        W55575  10.088  27.615   2.323 -0.2655 -0.0882  0.0965
    1W        W55576  11.763  23.351   7.255  0.1768  0.0128  0.0965
    1W        W55577  12.435  17.280   9.163  0.0906  0.2218 -0.0788
    1W        W55578  28.999   4.375   1.547 -0.1363  0.1081  0.0472
    1W        W55579  27.622   8.548   7.846  0.2810  0.0719 -0.3148
    1W        W55580  26.329   3.411   7.254  0.4172  0.2791 -0.0349
    1W        W55581  13.695   4.091   7.711  0.1870 -0.1018  0.0280
    1W        W55582  17.281  11.494   1.047  0.1119  0.3114 -0.0273
    1W        W55583  28.836  20.231   8.161 -0.0468  0.0457  0.2341
    1W        W55584  28.580  26.370   7.681  0.3177  0.2653 -0.3332
    1W        W55585   5.989  19.031   1.834 -0.1248 -0.1341 -0.1050
    1W        W55586  23.991  16.026   7.120 -0.0560 -0.1541  0.2756
    1W        W55587   4.657  11.160   3.022  0.0314  0.2458 -0.0896
    1W        W55588  19.081   0.925   3.195  0.0824 -0.1587 -0.1323
    1W        W55589  15.799  27.046   8.259  0.2032 -0.0087  0.0797
    1W        W55590  29.645   9.903   6.085  0.0493  0.2312  0.0232
    1W        W55591   1.265   6.915   7.895  0.0137 -0.2936 -0.3765
    1W        W55592  14.093  29.744   2.685 -0.1224 -0.5245  0.1739
    1W        W55593  12.833  16.407   8.139  0.0376  0.2532  0.2613
    1W        W55594  17.888   5.182   0.124  0.0490  0.1526  0.1278
    1W        W55595  14.717  16.800   2.016  0.2659 -0.2009 -0.1841
    1W        W55596  24.395  18.963   2.976 -0.0254 -0.1317 -0.0542
    1W        W55597   3.362  28.494   6.122  0.0539 -0.1329  0.3134
    1W        W55598  14.498  18.406   7.705  0.0350  0.4100  0.0079
    1W        W55599  15.918   8.424   7.281 -0.0763  0.0530 -0.0545
    1W        W55600  26.976   9.109   9.348  0.1848  0.1189 -0.1778
    1W        W55601   6.609   9.687   9.259 -0.1318  0.1341 -0.0511
    1W        W55602  13.786  22.809   9.329 -0.0480  0.2473 -0.2334
    1W        W55603   6.833   5.065   6.724 -0.2162  0.0508  0.0095
    1W        W55604  23.959  27.687   8.495 -0.2890 -0.3167 -0.1262
    1W        W55605  11.092  14.753   2.486 -0.2725  0.0238 -0.0532
    1W        W55606   0.134   9.804   7.758 -0.1010 -0.0537 -0.2475
    1W        W55607  25.905   3.586   0.178 -0.0159 -0.1769 -0.1297
    1W        W55608  16.537  23.781   2.370 -0.1608  0.1407  0.0516
    1W        W55609   3.567  25.809   1.497 -0.0011  0.2253 -0.2130
    1W        W55610  19.469  21.143   8.616  0.1033 -0.1601  0.1916
    1W        W55611  28.799  18.607   2.196  0.2059 -0.0483 -0.2147
    1W        W55612   8.415   5.731   9.396 -0.0211 -0.3152 -0.1330
    1W        W55613  28.412  17.317   7.727 -0.1567 -0.4372  0.2475
    1W        W55614   9.709  23.949   6.445 -0.2641  0.0254  0.0734
    1W        W55615   5.890  29.176   7.807 -0.1775 -0.1199  0.1053
    1W        W55616  28.386   5.409   2.781  0.0026 -0.3516 -0.2831
    1W        W55617  14.699  24.377   7.362  0.4161 -0.2664 -0.2571
    1W        W55618   3.087  24.024   1.315  0.3549  0.1050 -0.1234
    1W        W55619   6.929  14.184   9.221  0.2014 -0.0279 -0.2223
    1W        W55620   5.417   1.588   9.138  0.2338  0.2897 -0.0710
    1W        W55621  19.783   8.017   9.402 -0.0578  0.2309 -0.3451
    1W        W55622  26.060  14.521   7.698 -0.2255 -0.1831  0.1916
    1W        W55623   4.058   1.081   0.436 -0.0830 -0.1276 -0.3022
    1W        W55624  17.247   1.446   0.515  0.1902 -0.0847 -0.0530
    1W        W55625  27.445  26.420   8.828  0.0739 -0.1273  0.2984
    1W        W55626   8.238  14.861   0.599 -0.0523 -0.0098  0.1865
    1W        W55627  14.450  29.344   1.819 -0.1860 -0.0290 -0.1216
    1W        W55628   9.990   5.852   9.164 -0.0399  0.2050  0.1508
    1W        W55629  13.436   1.979   0.973 -0.1558  0.0334  0.3437
    1W        W55630  29.709  28.273   9.157  0.4733 -0.3613  0.0096
    1W        W55631  24.707  22.989   8.740  0.0619  0.3258  0.0239
    1W        W55632   6.287  25.381   8.689  0.0595 -0.0968  0.2574
    1W        W55633  24.079   0.199   1.679 -0.0756  0.2400  0.1269
    1W        W55634   5.139   2.835   9.170 -0.1602 -0.1423  0.0199
    1W        W55635   6.228  14.067   8.842 -0.3111 -0.1151 -0.0714
    1W        W55636  10.018  10.646   8.915 -0.2378  0.0610 -0.2132
    1W        W55637  29.016  14.820   2.605 -0.0845  0.0083 -0.2489
    1W        W55638   5.068  14.779   0.813 -0.1024  0.0261  0.1032
    1W        W55639  12.825   8.728   0.329  0.1191  0.1962  0.0484
    1W        W55640   2.438  21.440   0.028  0.1179  0.1821  0.1608
    1W        W55641   1.910  24.035   7.470 -0.1391  0.2273  0.1244
    1W        W55642  21.910  24.059   3.478 -0.1287  0.1590  0.2433
    1W        W55643  16.751   4.961   9.208 -0.1477  0.1236  0.1512
    1W        W55644   8.750  13.905   2.391  0.0495  0.0018  0.1190
    1W        W55645  22.874  21.160   0.607  0.2224  0.0768 -0.2757
    1W        W55646  11.305  21.802   9.083  0.3343 -0.0778  0.0166
    1W        W55647   3.120   3.007   7.409  0.4175 -0.1095 -0.0369
    1W        W55648   0.626  10.773   7.436  0.2596  0.0027 -0.0855
    1W        W55649  24.929  26.298   2.272 -0.2153 -0.0394 -0.1002
    1W        W55650  26.737   8.256   7.523 -0.2103  0.1117  0.1525
    1W        W55651  11.527  23.092   1.127  0.0952  0.0876 -0.2229
    1W        W55652  26.405   8.923   7.220  0.0976  0.2581 -0.0320
    1W        W55653  29.033  22.712   6.487 -0.0726 -0.1950 -0.0230
    1W        W55654  19.918   2.913   2.048  0.1410 -0.2400  0.1801
    1W        W55655  16.465  24.552   0.152  0.0231  0.2773  0.2205
    1W        W55656   6.812  21.434   0.087 -0.0352 -0.1844  0.2019
    1W        W55657  22.840  22.023   2.275 -0.0128 -0.1632  0.1017
    1W        W55658  23.023  21.536   2.102 -0.0782  0.0764  0.3165
    1W        W55659  13.697  22.646   2.750 -0.1116 -0.2190  0.1224
    1W        W55660  26.960  18.768   7.670 -0.0389  0.0255  0.1773
    1W        W55661  26.034  16.512   0.075  0.2297 -0.0196  0.0842
    1W        W55662   6.885   8.690   2.606 -0.0806  0.0548  0.0804
    1W        W55663  26.143   6.335   0.615  0.0197 -0.1407 -0.2634
    1W        W55664   6.209  29.588   3.770  0.4703 -0.0377  0.0519
    1W        W55665  29.770  14.167   8.339 -0.1413 -0.1619 -0.0337
    1W        W55666  21.156  28.637   2.717 -0.3606 -0.2335 -0.2869
    1W        W55667   7.549   1.366   1.868 -0.0713 -0.0154 -0.4453
    1W        W55668  26.041   7.276   7.000 -0.0002  0.1770  0.1085
    1W        W55669  16.320  21.159   0.042  0.1335 -0.2457  0.1050
    1W        W55670   4.933  24.836   6.357 -0.0356  0.0458  0.0154
    1W        W55671   7.621  11.791   7.856  0.3160 -0.4115 -0.0363
    1W        W55672  11.802   4.089   0.926 -0.0660 -0.3315  0.1079
    1W        W55673   8.673  12.509   1.932  0.2204 -0.1067 -0.4069
    1W        W55674  18.279  13.366   7.586  0.2340  0.2047  0.1968
    1W        W55675  20.993  14.161   0.816 -0.0290 -0.1527 -0.0451
    1W        W55676   8.727  24.315   6.284 -0.2550  0.0158 -0.0352
    1W        W55677   4.724  27.999   9.078  0.2399  0.0617  0.0494
    1W        W55678  26.350  21.277   9.004  0.2240  0.2934 -0.1650
    1W        W55679   8.201  28.039   9.350 -0.2082  0.1746  0.0553
    1W        W55680   8.846  23.272   8.152  0.0628  0.1259 -0.0486
    1W        W55681   3.290  17.285   9.165  0.1517 -0.1097  0.0477
    1W        W55682   9.080  15.061   2.204  0.1859 -0.2023 -0.1688
    1W        W55683  16.965   0.578   6.886  0.2230  0.2702 -0.0172
    1W        W55684  12.024  25.255   2.436 -0.1384  0.1776 -0.2767
    1W        W55685  29.466   7.027   7.080 -0.1133  0.0460 -0.0808
    1W        W55686  13.589   6.847   7.100 -0.2822  0.0876  0.2221
    1W        W55687  13.626   3.910   8.192  0.2453  0.0337  0.2143
    1W        W55688  22.332  18.316   6.630  0.2428  0.0280 -0.0301
    1W        W55689   6.250  27.106   9.142  0.1134  0.1492  0.0693
    1W        W55690  15.483  13.674   7.169  0.0016  0.2394 -0.0455
    1W        W55691  14.481   7.167   0.537 -0.1025  0.0801 -0.1519
    1W        W55692  24.468  22.509   2.112  0.0951  0.0296  0.0096
    1W        W55693   0.206   8.399   0.520 -0.2214  0.0949 -0.3434
    1W        W55694  27.933  12.889   0.376 -0.1621 -0.3100  0.2730
    1W        W55695  24.478   6.019   0.960 -0.0985 -0.1295  0.2865
    1W        W55696  17.451   2.462   1.554 -0.1342 -0.1053 -0.0887
    1W        W55697  22.672  28.246   7.311  0.0507  0.1452 -0.0231
    1W        W55698  27.921  20.826   0.825  0.1984 -0.3344  0.2209
    1W        W55699  28.452  14.839   8.770 -0.0575  0.0101 -0.1019
    1W        W55700  27.028  10.127   7.086 -0.1547  0.0602 -0.2750
    1W        W55701   6.979   0.201   3.283  0.2460 -0.0782 -0.1476
    1W        W55702   5.585  21.231   0.202 -0.3909 -0.2319  0.0522
    1W        W55703  26.076   2.537   6.794  0.0798 -0.1007 -0.0135
    1W        W55704  19.279   3.000   7.042  0.0908  0.1417  0.2643
    1W        W55705  22.476   7.870   2.363 -0.1350  0.0763  0.1766
    1W        W55706  18.056  15.131   7.737 -0.3259 -0.3955 -0.0194
    1W        W55707  17.925  29.093   6.947  0.1044 -0.0263 -0.0905
    1W        W55708  23.509   1.008   0.997  0.0045  0.2920  0.0228
    1W        W55709   2.655  22.751   7.584  0.0811 -0.0046  0.0029
    1W        W55710   7.898  24.446   6.440 -0.0594  0.1654 -0.2796
    1W        W55711  26.792  13.949   1.503 -0.3018 -0.1960  0.0536
    1W        W55712  27.090  28.016   2.616 -0.0465  0.0758 -0.0894
    1W        W55713   7.369   3.576   0.678 -0.1309  0.1072  0.0977
    1W        W55714  29.249   4.499   0.735  0.1437  0.1203  0.3756
    1W        W55715  17.442   2.111   3.521 -0.1103  0.1818 -0.1374
    1W        W55716  16.308  18.019   1.515 -0.0578 -0.3314 -0.0355
    1W        W55717  23.661   6.250   6.360  0.2899  0.1227  0.0726
    1W        W55718  22.883  15.602   7.042  0.1466  0.1421  0.0197
    1W        W55719  18.437   5.969   3.102  0.1565  0.0726 -0.2375
    1W        W55720  28.398  23.860   6.139  0.5319  0.2696 -0.0520
    1W        W55721   2.349  27.274   0.912 -0.1652  0.1491  0.2104
    1W        W55722  12.184  21.522   0.190 -0.2034 -0.0546  0.2169
    1W        W55723   6.361  19.399   6.988  0.1545 -0.2391 -0.2334
    1W        W55724  16.614   0.123   1.451 -0.1355  0.2479 -0.1879
    1W        W55725  24.349  10.170   9.350  0.3751 -0.1538  0.2104
    1W        W55726   8.439  23.841   6.931  0.1797 -0.1539  0.0426
    1W        W55727   3.842  15.523   7.617 -0.2279  0.2740 -0.1062
    1W        W55728   7.815  19.434   1.877 -0.0928 -0.0331  0.4350
    1W        W55729  23.508  23.466   1.951  0.1669 -0.0096  0.3089
    1W        W55730  27.019  20.484   6.623  0.0498  0.1587 -0.1681
    1W        W55731  11.650  21.018   6.594  0.1410 -0.3850 -0.2634
    1W        W55732   2.372   3.335   6.150  0.2583 -0.0172 -0.0302
    1W        W55733   6.050  16.961   6.522 -0.1431  0.1641 -0.3326
    1W        W55734   2.825  24.195   6.833  0.0658 -0.1875  0.0735
    1W        W55735   8.017  11.630   8.131 -0.6051  0.1146 -0.0409
    1W        W55736   0.213  25.689   8.869 -0.5183 -0.2225  0.2123
    1W        W55737  27.370  16.161   1.764 -0.0439 -0.2404  0.0037
    1W        W55738   4.121  17.177   7.108 -0.1091 -0.2485 -0.0220
    1W        W55739  16.812  29.656   7.587 -0.1183  0.0069  0.2093
    1W        W55740  24.207  16.685   7.456  0.1782  0.0826 -0.0446
    1W        W55741   9.702  21.518   8.172  0.1173 -0.0354  0.2669
    1W        W55742  10.284   5.852   0.719  0.2564  0.0015 -0.2178
    1W        W55743   4.814  22.720   2.126  0.1314 -0.3553  0.0873
    1W        W55744   5.632  15.354   9.312 -0.1717  0.1228  0.2090
    1W        W55745  19.420   9.962   7.643  0.3874  0.0799 -0.2543
    1W        W55746  17.829  18.860   8.029 -0.0588  0.3570 -0.4071
    1W        W55747   0.511   3.030   7.808 -0.1797  0.2334  0.1309
    1W        W55748  15.054   5.636   1.042 -0.3216 -0.2952 -0.0597
    1W        W55749  10.032  27.202   2.745  0.2193  0.0988  0.3089
    1W        W55750  15.424  10.516   8.313  0.0478 -0.4610  0.2246
    1W        W55751   3.811  18.117   9.203  0.0083 -0.0885 -0.0663
    1W        W55752  28.499  19.979   7.669  0.3259 -0.0958  0.0869
    1W        W55753  22.773  17.872   0.030  0.2329 -0.3263  0.0382
    1W        W55754   4.597   0.377   1.476  0.0372  0.0143 -0.3732
    1W        W55755  10.454   5.331   1.800  0.0167  0.0619 -0.0864
    1W        W55756  10.169  26.073   2.072  0.0104  0.0250  0.3287
    1W        W55757  27.772  14.205   6.768 -0.4175  0.4092 -0.0028
    1W        W55758  24.508  23.590   0.009 -0.0030  0.1370  0.0070
    1W        W55759  24.289  11.242   6.956  0.4356  0.2469  0.0535
    1W        W55760   6.484   8.000   9.114  0.4215  0.1490  0.3215
    1W        W55761  16.136  27.034   0.516 -0.1543 -0.2155 -0.4950
    1W        W55762  21.723   8.439   1.816  0.1687 -0.2325  0.1329
    1W        W55763   8.211  18.531   9.090  0.1152  0.3388 -0.0820
    1W        W55764  20.131  17.583   8.896 -0.3305  0.0088 -0.0353
    1W        W55765   5.596   3.797   3.089 -0.0707  0.1231 -0.0967
    1W        W55766  10.973  26.430   8.121 -0.3203 -0.1218 -0.3465
    1W        W55767  22.128   5.185   6.340  0.1921 -0.0598 -0.1206
    1W        W55768  25.742   3.937   2.487  0.0125  0.0954 -0.1873
    1W        W55769  22.159  23.113   7.488  0.0059 -0.3501  0.2413
    1W        W55770   8.365   7.293   1.287 -0.1690 -0.0622  0.1091
    1W        W55771  15.887  18.067   1.803 -0.0973  0.2062 -0.0524
    1W        W55772  23.046   9.113   6.784  0.0651 -0.1532 -0.1553
    1W        W55773  19.477  14.787   8.621 -0.0428 -0.0432 -0.0481
    1W        W55774  23.503   8.104   8.618 -0.1961 -0.0472 -0.2068
    1W        W55775   5.050   6.979   7.667  0.0418 -0.1950  0.2094
    1W        W55776  23.014   3.734   1.024 -0.0778 -0.0486 -0.0761
    1W        W55777  24.828  11.016   7.579 -0.1026 -0.7095  0.2063
    1W        W55778   7.128  10.804   9.305 -0.1997 -0.0549  0.0218
    1W        W55779  14.411  14.900   8.118  0.0781  0.2259 -0.1540
    1W        W55780   1.767  25.428   1.827  0.0252 -0.0865  0.0555
    1W        W55781  29.356   5.110   8.325 -0.2507  0.0657  0.0932
    1W        W55782  20.149  11.291   7.105  0.0558  0.5621  0.2237
    1W        W55783  16.456  27.252   9.199  0.2184  0.1224  0.0487
    1W        W55784  22.102  16.522   7.773  0.1666 -0.1793  0.0427
    1W        W55785  20.526  21.360   7.044 -0.1094 -0.0236  0.1278
    1W        W55786  27.608   2.829   0.935 -0.0728 -0.1235  0.0655
    1W        W55787  13.193  26.000   7.879  0.0408  0.2157  0.2777
    1W        W55788   9.252  15.445   1.462 -0.1585  0.0484  0.0595
    1W        W55789   6.189  23.430   8.261  0.0059 -0.1713 -0.2362
    1W        W55790   9.791  27.182   9.029  0.2382  0.2672  0.0655
    1W        W55791  13.491  24.274   8.455 -0.2581 -0.1528  0.0468
    1W        W55792  13.499   8.793   0.729 -0.2314 -0.0369 -0.0034
    1W        W55793  13.625  15.317   1.001  0.1097  0.0457 -0.1679
    1W        W55794  29.505  20.092   6.843  0.0697  0.2915  0.1392
    1W        W55795  15.215  21.957   0.592 -0.2180 -0.2040  0.1948
    1W        W55796  14.411   5.588   6.892 -0.1097 -0.1700 -0.1404
    1W        W55797   9.373   8.928   0.689 -0.1941  0.1703 -0.0050
    1W        W55798   4.015  19.336   7.315 -0.0870 -0.0612  0.0719
    1W        W55799  15.515  14.367   0.106 -0.2311 -0.0222  0.0704
    1W        W55800   6.655  19.795   7.158  0.0180 -0.0445 -0.0370
    1W        W55801   5.607  14.599   9.380 -0.0915  0.0243  0.3749
    1W        W55802  20.574  10.867   0.469 -0.4122 -0.1137 -0.0687
    1W        W55803  29.579   6.993   1.871 -0.3593  0.1851  0.2727
    1W        W55804  28.549   8.462   7.659 -0.1740  0.2507  0.3064
    1W        W55805  15.057  26.156   1.239 -0.0919  0.0406 -0.0094
    1W        W55806  10.307   7.292   0.667 -0.0011  0.0304 -0.1092
    1W        W55807   0.826  18.199   8.142 -0.1073  0.0429  0.1121
    1W        W55808   2.004  27.130   8.925  0.0188  0.2876  0.0272
    1W        W55809  27.159   4.079   1.483 -0.1192 -0.1678  0.0376
    1W        W55810  20.863  26.631   1.476  0.1476 -0.2755 -0.1058
    1W        W55811  24.809  12.881   5.804 -0.1595 -0.0802 -0.0416
    1W        W55812   8.648  10.442   0.074 -0.2117  0.0789 -0.2043
    1W        W55813   0.438  25.074   7.687 -0.0182 -0.1445 -0.3269
    1W        W55814   7.226  13.824   9.010 -0.0126  0.0418 -0.2849
    1W        W55815   1.057   8.865   2.957 -0.2135  0.0651  0.1659
    1W        W55816  10.170  17.481   7.961 -0.0000  0.0721  0.0107
    1W        W55817   9.054  14.007   9.092 -0.3215 -0.0507 -0.2621
    1W        W55818  11.107  16.426   8.278 -0.3537  0.2193 -0.1366
    1W        W55819  20.686  17.879   0.617 -0.0648  0.3361 -0.0977
    1W        W55820  13.082  12.369   0.676  0.3607 -0.0244 -0.2264
    1W        W55821   6.241  18.193   9.137 -0.1036  0.0467  0.0078
    1W        W55822  23.736   9.460   9.116 -0.1010  0.0982 -0.4072
    1W        W55823  10.057   5.847   0.205 -0.2120 -0.1823  0.1254
    1W        W55824   2.991  25.244   0.347  0.1505 -0.2782  0.0324
    1W        W55825  19.228   4.596   0.448  0.1275  0.0418  0.0194
    1W        W55826   5.699  19.059   6.428 -0.0120  0.1775  0.2827
    1W        W55827   8.739   5.406   7.442  0.0239  0.7516 -0.1684
    1W        W55828   3.061  27.616   0.799 -0.0255  0.0375  0.2970
    1W        W55829  24.705  17.113   8.567  0.0158 -0.0126  0.1014
    1W        W55830  12.825  26.819   7.506 -0.2994 -0.0958  0.2723
    1W        W55831   5.777  12.161   7.968  0.1760  0.1852  0.1179
    1W        W55832   9.620  19.463   6.676 -0.2112  0.0741  0.0143
    1W        W55833  10.128  23.762   1.191 -0.0637 -0.2043  0.1786
    1W        W55834  29.356   3.076   2.106  0.1915  0.0619 -0.1100
    1W        W55835   6.706  19.360   8.553 -0.0977 -0.0407 -0.2380
    1W        W55836  29.602  26.084   7.373 -0.3500  0.3830  0.0509
    1W        W55837  21.761   2.786   8.070  0.1509 -0.0726 -0.1201
    1W        W55838   2.123  10.871   9.319  0.0445 -0.0646 -0.1747
    1W        W55839  25.676  29.534   8.337  0.1962 -0.3069 -0.2574
    1W        W55840   5.821   0.143   6.799 -0.1508 -0.1425 -0.3519
    1W        W55841   0.791  10.990   7.913  0.2534 -0.0011  0.1209
    1W        W55842  12.626  27.311   6.902 -0.1016 -0.4162  0.3599
    1W        W55843  10.755  17.373   0.266 -0.2101  0.0761  0.0006
    1W        W55844  23.822  12.633   1.732 -0.1207  0.1125 -0.2355
    1W        W55845  29.781   7.016   7.481  0.0449  0.0560  0.0546
    1W        W55846   6.047   7.821   1.004 -0.2945  0.0498 -0.2148
    1W        W55847   6.350   5.002   7.494 -0.0429  0.0055 -0.0822
    1W        W55848  12.582  22.759   8.020  0.1332  0.1213  0.0614
    1W        W55849  13.459  16.840   6.975  0.1017  0.1491 -0.4085
    1W        W55850  28.973  25.164   7.580  0.1330 -0.1107 -0.1876
    1W        W55851  23.078  12.165   0.524 -0.2674  0.1090 -0.1159
    1W        W55852  23.622   5.541   2.719  0.3369 -0.1754 -0.0510
    1W        W55853  16.145  14.899   1.104  0.1772 -0.2378  0.0292
    1W        W55854   5.696   0.153   0.837  0.0126  0.0483 -0.1977
    1W        W55855  21.903  26.956   7.332 -0.1285  0.0743  0.1701
    1W        W55856  28.784  23.430   5.883 -0.2548  0.0621  0.1295
    1W        W55857  20.372  10.148   6.509 -0.2429  0.0113  0.0086
    1W        W55858  28.687  21.056   2.463 -0.0024  0.1450  0.1562
    1W        W55859  10.981  10.986   7.947  0.1231 -0.0904  0.3351
    1W        W55860  21.479  15.163   0.414  0.1220 -0.1110 -0.0012
    1W        W55861  17.615  18.703   1.696  0.0582  0.2001  0.2349
    1W        W55862  27.458   1.085   1.117  0.0901  0.0300 -0.0419
    1W        W55863  29.340  19.984   8.022  0.0167 -0.1553 -0.0773
    1W        W55864  11.238   2.329   2.816 -0.1237 -0.0757  0.0621
    1W        W55865  14.663  23.674   1.253 -0.0991 -0.2212 -0.3249
    1W        W55866  14.337  23.536   0.394 -0.1255 -0.1403 -0.3087
    1W        W55867  21.773  29.131   8.770 -0.0300  0.0149 -0.0658
    1W        W55868   8.129  23.977   8.335 -0.2025  0.2559 -0.0172
    1W        W55869   8.010   4.782   7.812  0.1242 -0.4130 -0.2712
    1W        W55870  24.687   2.647   2.995  0.1057 -0.0773 -0.0176
    1W        W55871  18.798  18.452   1.469  0.1538  0.1599 -0.2768
    1W        W55872   8.037  15.297   8.180  0.1869 -0.1348 -0.1853
    1W        W55873   1.284  18.674   9.017  0.2413  0.1036 -0.3135
    1W        W55874  17.202  21.794   0.123  0.0719 -0.0725  0.4254
    1W        W55875  10.354  29.284   9.373 -0.1669 -0.2979  0.0923
    1W        W55876  13.496   7.904   9.444 -0.1453  0.1342  0.1119
    1W        W55877   0.126  25.583   1.250 -0.1200  0.0365  0.3455
    1W        W55878  24.277  21.217   6.713 -0.0978 -0.2365  0.2627
    1W        W55879   1.316   8.010   6.171  0.2831  0.0899 -0.1332
    1W        W55880  29.441  28.907   6.754 -0.2122 -0.3305 -0.4196
    1W        W55881   3.289   4.822   1.862  0.4588  0.1325 -0.2332
    1W        W55882   9.341  18.261   1.338 -0.2120  0.0439 -0.2448
    1W        W55883  20.459  10.340   7.011  0.4097 -0.0575  0.0118
    1W        W55884  25.843  24.971   9.034  0.5052 -0.1479 -0.0642
    1W        W55885  20.660   6.297   0.242  0.0037 -0.2524 -0.0030
    1W        W55886  24.448   5.250   1.865 -0.3693  0.0986  0.3120
    1W        W55887  24.231  15.202   0.233  0.3484  0.1014 -0.0743
    1W        W55888   4.886  21.330   1.559 -0.4705 -0.0963 -0.0174
    1W        W55889  24.541   3.448   1.876  0.1129 -0.1484 -0.1473
    1W        W55890  13.207   1.115   2.011 -0.0134  0.0548  0.0145
    1W        W55891  17.916   6.887   9.381 -0.0778 -0.0165  0.0899
    1W        W55892   6.834  28.866   0.671  0.1075 -0.1369  0.0978
    1W        W55893  22.456   9.777   7.274  0.0284  0.2394 -0.1895
    1W        W55894  27.784  12.040   9.297 -0.0913  0.0807 -0.1717
    1W        W55895  24.643  12.412   2.171  0.1681  0.0209 -0.3018
    1W        W55896   8.810   2.950   1.516  0.0272  0.1041  0.4442
    1W        W55897  26.680  18.883   8.569 -0.0873  0.0779  0.1432
    1W        W55898  25.898  16.639   1.043  0.1515 -0.0699 -0.0602
    1W        W55899  28.629   4.708   6.690  0.3269 -0.0548  0.0014
    1W        W55900  13.549   0.108   7.151  0.0132 -0.3538  0.1951
    1W        W55901  23.984   6.224   2.421 -0.0001  0.3184  0.1663
    1W        W55902   2.139  21.890   5.645 -0.0188 -0.0904  0.1932
    1W        W55903  23.269  15.829   7.861  0.0240  0.0903  0.2008
    1W        W55904   7.254   5.942   8.224  0.0648  0.0443  0.1316
    1W        W55905  26.805  28.804   2.017  0.2020 -0.0319  0.2242
    1W        W55906  25.035  24.240   0.293  0.0137 -0.1030  0.3482
    1W        W55907   6.912  24.327   0.730 -0.2930 -0.0385 -0.0173
    1W        W55908  17.150   9.898   9.094  0.2222 -0.0225 -0.3024
    1W        W55909   6.813  27.990   1.844  0.1787  0.2220 -0.1781
    1W        W55910  24.343   4.119   1.972 -0.2818  0.1451  0.0810
    1W        W55911   6.904  18.576   6.449 -0.0440 -0.1691  0.0044
    1W        W55912  27.590  29.329   2.681  0.3089 -0.2357 -0.3453
    1W        W55913  15.742  24.956   2.023  0.1277  0.0200  0.2826
    1W        W55914  11.046  20.036   9.168  0.3359 -0.3807 -0.0172
    1W        W55915   2.866  27.466   1.343  0.0545 -0.1600  0.1771
    1W        W55916   3.627  21.004   7.541  0.4097  0.2248  0.2234
    1W        W55917   8.508  26.244   7.751 -0.0379  0.1315 -0.1403
    1W        W55918  29.418   3.503   2.526 -0.5114  0.2105  0.1201
    1W        W55919   7.919   2.313   0.587  0.2598  0.1036  0.1953
    1W        W55920   0.899  23.793   0.929  0.1087 -0.0822 -0.1139
    1W        W55921  20.674  28.102   0.035  0.2399 -0.3394  0.0551
    1W        W55922   4.546  11.024   1.193  0.1402 -0.0829  0.2636
    1W        W55923  25.480   0.668   6.424  0.0347  0.0392 -0.1188
    1W        W55924  17.654  20.359   8.253 -0.0320  0.1062  0.2082
    1W        W55925   4.987  20.687   5.675 -0.1701 -0.1105 -0.1852
    1W        W55926  28.300   4.728   9.151  0.1744  0.0060  0.0287
    1W        W55927  14.906  11.124   0.638 -0.1000 -0.0933 -0.0907
    1W        W55928  28.429  15.353   7.016  0.0882  0.1335  0.1828
    1W        W55929   6.499  17.292   1.874  0.0527 -0.2490  0.0861
    1W        W55930  23.031   1.133   7.334 -0.0887  0.1101 -0.1697
    1W        W55931  16.201  21.321   2.193 -0.2835  0.3196  0.3782
    1W        W55932   4.911   2.278   7.314  0.0995  0.0023  0.1849
    1W        W55933   1.663   9.349   7.447 -0.0322 -0.0530  0.1044
    1W        W55934   0.824  23.023   6.458 -0.3259 -0.1423 -0.3642
    1W        W55935  14.331  18.942   7.726  0.0150  0.3308 -0.0183
    1W        W55936  27.260   6.460   2.437 -0.0715  0.1660  0.1270
    1W        W55937  19.423   5.597   7.855  0.0289 -0.0597  0.2092
    1W        W55938   2.144  26.319   2.546 -0.0035 -0.0704  0.0600
    1W        W55939  16.446  27.692   2.539  0.6224 -0.0620  0.2285
    1W        W55940  18.238  16.237   1.644  0.3294  0.0889 -0.1380
    1W        W55941   0.192   2.433   2.414  0.0752 -0.1646 -0.0568
    1W        W55942  24.264  28.642   1.456 -0.0119 -0.3646  0.1920
    1W        W55943  15.153  22.991   0.760 -0.1385  0.0138  0.1087
    1W        W55944  28.248  20.081   2.221 -0.0814  0.0076 -0.0344
    1W        W55945  27.624   6.961   1.960  0.0212 -0.2056  0.3153
    1W        W55946  29.525  23.967   8.225  0.2237 -0.0675 -0.0041
    1W        W55947   2.600  29.352   8.902 -0.1732 -0.1211 -0.0253
    1W        W55948   5.425   4.614   0.041  0.1614  0.0832 -0.2234
    1W        W55949  11.215   4.539   8.279  0.2025 -0.0108 -0.1931
    1W        W55950  28.793  23.437   0.489 -0.4313  0.0404 -0.2611
    1W        W55951   1.646  27.849   0.754 -0.0215 -0.3174 -0.0178
    1W        W55952   7.318  29.126   8.791  0.0519 -0.0840 -0.1241
    1W        W55953   3.297  26.184   7.876  0.0229  0.4311  0.0227
    1W        W55954  27.807  11.877   2.427 -0.0860  0.0777 -0.2094
    1W        W55955   9.755  16.456   2.242  0.1981 -0.0915 -0.1968
    1W        W55956  29.506  11.024   7.025 -0.0211  0.1508  0.0088
    1W        W55957  17.358  17.151   1.445 -0.0571 -0.0250 -0.0375
    1W        W55958   9.839  25.310   1.864  0.1629  0.3091 -0.1801
    1W        W55959  17.948   7.877   6.877  0.1202 -0.0443 -0.0340
    1W        W55960  24.334   9.245   0.275  0.0821  0.2274 -0.0594
    1W        W55961   0.689  25.132   8.143  0.2532  0.1243 -0.2790
    1W        W55962   2.355  28.210   0.730  0.0339  0.1641  0.1777
    1W        W55963  27.664  28.428   0.291  0.2352  0.2749 -0.0430
    1W        W55964  17.933  25.959   7.824 -0.1018  0.0628 -0.2416
    1W        W55965   5.662  16.997   5.973 -0.1500  0.0068  0.0421
    1W        W55966   1.621   9.218   2.294 -0.0882 -0.1932 -0.2290
    1W        W55967  26.505  20.955   7.988  0.0642  0.0762  0.3176
    1W        W55968   1.233  23.961   0.313  0.1142 -0.2955  0.0857
    1W        W55969  17.639   1.701   1.067 -0.0978  0.0014 -0.0022
    1W        W55970   7.423  13.810   7.811  0.0753 -0.0019  0.0641
    1W        W55971   0.427   6.596   8.528  0.2692  0.0707 -0.0368
    1W        W55972  13.016  16.239   9.099  0.4389  0.4615 -0.2916
    1W        W55973  22.951  16.371   1.878  0.3808  0.1514  0.0904
    1W        W55974  11.975   0.731   0.635  0.2990  0.0877  0.0159
    1W        W55975   6.722  16.886   8.716 -0.1924  0.0780 -0.1944
    1W        W55976  20.637   3.786   9.199  0.1872 -0.0085  0.2200
    1W        W55977  12.778   0.113   8.288  0.1112  0.0443  0.1690
    1W        W55978  19.369   4.741   3.115 -0.3273  0.0771 -0.0454
    1W        W55979  27.984  14.988   1.634  0.0785 -0.3038  0.1188
    1W        W55980  21.204  18.533   8.295 -0.2323  0.1255  0.1032
    1W        W55981  19.624   3.900   2.929  0.0505  0.3464 -0.0515
    1W        W55982   9.527  15.079   7.322  0.2033 -0.1259 -0.0797
    1W        W55983  24.468   5.118   7.299 -0.1138 -0.1849  0.1249
    1W        W55984  14.190  19.621   9.457  0.1754  0.3097  0.0808
    1W        W55985   7.205   1.016   1.194 -0.0783  0.2370 -0.2135
    1W        W55986  15.984   3.569   2.855 -0.1995  0.1007  0.4647
    1W        W55987  25.413   2.641   9.177  0.1521  0.2902 -0.2894
    1W        W55988  24.910  16.722   0.662 -0.1621 -0.3702 -0.0819
    1W        W55989   1.691  23.733   0.288 -0.0629 -0.0137 -0.2593
    1W        W55990  17.869   1.368   8.850  0.1693 -0.0249  0.2126
    1W        W55991  16.290  19.492   1.291  0.2508  0.0041 -0.0658
    1W        W55992   6.174  27.985   8.914 -0.3592  0.0012  0.0188
    1W        W55993   0.494  18.999   6.977 -0.0176  0.1237  0.0372
    1W        W55994  18.038   3.406   8.055  0.3862 -0.1380  0.0329
    1W        W55995   0.555   8.624   1.024 -0.2748  0.0170 -0.0815
    1W        W55996  27.673  17.775   5.628 -0.0254 -0.0510 -0.0840
    1W        W55997  16.837  26.300   1.254  0.3677 -0.1625 -0.2958
    1W        W55998  20.669  20.277   0.641 -0.0318  0.2421  0.1803
    1W        W55999  11.863  17.417   8.636  0.0202 -0.1629 -0.2030
    1W        W56000  22.122  10.168   7.249  0.1501 -0.1396  0.0349
    1W        W56001  27.938  27.698   7.764 -0.1239  0.2629 -0.1293
    1W        W56002   8.797  25.589   2.059 -0.1195 -0.1878 -0.0499
    1W        W56003   6.052  15.234   1.809 -0.2861  0.0826  0.0174
    1W        W56004   3.449  13.005   8.055  0.1290 -0.0435  0.0942
    1W        W56005  19.429   6.951   6.935  0.3522 -0.0463 -0.0382
    1W        W56006   5.292  11.514   0.865 -0.1450 -0.3852 -0.0731
    1W        W56007   5.464   2.661   8.145 -0.2454 -0.0335 -0.0861
    1W        W56008  21.632  22.746   0.248 -0.0687  0.1672 -0.0443
    1W        W56009   1.335  22.381   9.265  0.0599  0.0653  0.1264
    1W        W56010  14.313   3.118   0.989  0.2293 -0.2489 -0.1431
    1W        W56011  29.390  23.641   5.975 -0.1328  0.1588  0.0110
    1W        W56012  19.412  24.284   2.867  0.0086 -0.4770 -0.0380
    1W        W56013  17.619  26.432   7.402  0.6161  0.0179  0.1654
    1W        W56014   5.701   9.101   8.127  0.1002  0.1222  0.2339
    1W        W56015   7.048  29.196   2.887  0.2072  0.1443 -0.0163
    1W        W56016  22.955   1.568   2.007 -0.0981  0.1812  0.0598
    1W        W56017   6.236   4.537   7.795  0.0885  0.1395  0.0534
    1W        W56018  16.489  27.982   0.457 -0.1513 -0.1041 -0.0050
    1W        W56019  11.293  21.324   7.401  0.2293  0.3454 -0.1270
    1W        W56020   9.001   9.180   0.251 -0.2929  0.0631 -0.0747
    1W        W56021  12.554   9.661   0.378  0.0571  0.0954  0.0093
    1W        W56022   3.938  15.331   5.903 -0.2280  0.0451  0.0453
    1W        W56023  17.601  26.387   6.925  0.0845  0.3024 -0.0090
    1W        W56024   1.922  25.669   5.678 -0.1662 -0.3317 -0.0645
    1W        W56025   8.313  22.166   8.915  0.1795 -0.2319 -0.0192
    1W        W56026  24.976   9.562   9.171  0.0918  0.1880 -0.2307
    1W        W56027   8.839  24.709   7.241 -0.1406 -0.0632  0.3657
    1W        W56028  23.077  23.160   2.159 -0.1588  0.0166  0.1172
    1W        W56029  19.752   9.286   6.733 -0.2895  0.1177  0.1387
    1W        W56030  17.765  13.526   2.033 -0.3126  0.0856  0.0792
    1W        W56031  12.463  16.255   7.879 -0.3515  0.1084  0.3159
    1W        W56032  26.065   0.923   3.549  0.1729 -0.3749  0.4164
    1W        W56033  24.134  20.888   7.468 -0.0842 -0.1837  0.0469
    1W        W56034   2.165  26.082   6.428 -0.0684  0.2244 -0.0015
    1W        W56035   1.455  24.470   1.854  0.1970  0.1015 -0.0110
    1W        W56036  13.344   6.851   2.903  0.3946  0.4382  0.1343
    1W        W56037  24.017   5.627   1.172 -0.1574  0.3036 -0.0234
    1W        W56038  17.572  28.003   0.556 -0.0601  0.0514  0.0439
    1W        W56039   1.074  16.927   1.346  0.2068 -0.1482  0.2910
    1W        W56040  11.970   5.994   9.200 -0.1542  0.1163 -0.0294
    1W        W56041  27.933  14.549   9.059 -0.3656  0.0074  0.1527
    1W        W56042  28.256  29.511   1.254 -0.1439  0.1603  0.0859
    1W        W56043   3.850   2.618   3.600  0.1912 -0.3053 -0.1683
    1W        W56044   3.236  15.671   8.079  0.0351  0.1221  0.5067
    1W        W56045   1.878  28.454   8.603 -0.0280 -0.3715 -0.2120
    1W        W56046  28.383  25.874   9.442 -0.0245  0.1280 -0.2974
    1W        W56047  16.018  16.659   9.009 -0.2508 -0.1545 -0.0480
    1W        W56048   4.793  18.860   8.624 -0.1547 -0.0942 -0.1036
    1W        W56049  19.002  12.530   0.564  0.0683 -0.0943 -0.1976
    1W        W56050   5.308  28.143   6.748 -0.0685 -0.3820 -0.1324
    1W        W56051   4.242   9.159   0.534  0.2309 -0.0365  0.0086
    1W        W56052  21.228  23.473   9.388  0.1168  0.3378  0.0887
    1W        W56053  23.483  16.844   9.014 -0.0160 -0.0290 -0.0044
    1W        W56054  12.849  20.744   2.516  0.1988  0.0584 -0.0899
    1W        W56055  14.143  14.132   8.489  0.0371 -0.2010  0.2594
    1W        W56056  27.245  18.989   0.296 -0.1162  0.0141 -0.2275
    1W        W56057   9.521   3.397   1.363  0.0539 -0.4334  0.0816
    1W        W56058  24.125  16.617   8.035  0.4723 -0.1800 -0.0912
    1W        W56059  19.632  15.970   8.247  0.2523  0.2573 -0.1404
    1W        W56060  23.630  22.067   1.130 -0.1324  0.0556  0.2460
    1W        W56061   2.348  28.554   1.415  0.0857  0.0024 -0.1248
    1W        W56062   3.018   1.289   7.355  0.2534  0.0362  0.0678
    1W        W56063  24.998  21.560   7.352  0.0327 -0.1625 -0.0901
    1W        W56064  18.524  27.185   8.122 -0.1427  0.0857  0.5004
    1W        W56065   5.989   2.029   7.290  0.2654 -0.1852  0.1152
    1W        W56066  15.160  25.838   7.776 -0.1160 -0.0076 -0.2602
    1W        W56067  11.774   8.680   7.909 -0.0326 -0.0389 -0.0975
    1W        W56068   8.714  26.035   6.644 -0.1837  0.1281  0.0268
    1W        W56069   1.118   3.191   2.349 -0.0485 -0.1739 -0.0973
    1W        W56070  27.977  18.567   9.336 -0.0591  0.1027 -0.0079
    1W        W56071  13.864   7.707   1.111 -0.0797  0.1312  0.0316
    1W        W56072  27.485   6.978   6.873 -0.1517 -0.3683 -0.2770
    1W        W56073  25.878   9.152   0.606  0.0538  0.1293 -0.1416
    1W        W56074  19.878   8.009   1.512  0.0024 -0.1358  0.0266
    1W        W56075  18.528  16.264   6.951  0.2824 -0.2441  0.1384
    1W        W56076  16.125  27.360   0.117 -0.1234 -0.2136 -0.2448
    1W        W56077  26.368  25.031   7.304 -0.3781  0.0360 -0.1700
    1W        W56078  24.739  14.440   8.366  0.0634  0.1812  0.1533
    1W        W56079   9.572  16.224   8.858  0.2204 -0.4056  0.1712
    1W        W56080  18.304  16.922   7.376 -0.1754  0.1199  0.0544
    1W        W56081  12.137   9.216   1.405  0.1347  0.0206 -0.0279
    1W        W56082   2.476  27.584   7.603  0.4149  0.0778 -0.3334
    1W        W56083  12.204  26.273   7.620  0.0418  0.1375  0.1658
    1W        W56084   6.663  18.389   8.929 -0.3589  0.1468 -0.0020
    1W        W56085  18.412  19.237   8.439 -0.0174 -0.1575  0.0898
    1W        W56086   9.018  13.522   0.938 -0.1815  0.0584  0.0135
    1W        W56087   0.680  14.123   6.041  0.1646  0.3746 -0.1701
    1W        W56088   9.244  22.045   9.114 -0.0822  0.0989  0.0838
    1W        W56089  18.031   7.163   2.269 -0.2481 -0.3777 -0.0505
    1W        W56090  14.700  28.742   0.764  0.0444  0.2226 -0.0026
    1W        W56091  23.786  18.832   8.951  0.1718 -0.0439 -0.3262
    1W        W56092  23.746  26.144   1.736 -0.0426  0.0184 -0.0348
    1W        W56093  22.905   1.999   1.314  0.3060 -0.3472  0.0461
    1W        W56094   5.252  20.146   8.920  0.1463 -0.1046 -0.2200
    1W        W56095   5.730  12.325   7.478 -0.1867 -0.1369  0.0327
    1W        W56096  21.079  24.649   9.430  0.0571 -0.1551 -0.2024
    1W        W56097  26.452  25.372   7.683 -0.0473 -0.0273  0.0645
    1W        W56098   1.220  19.640   1.744 -0.0632  0.1229  0.2366
    1W        W56099  15.334   4.844   0.866  0.0040 -0.2620 -0.0001
    1W        W56100  27.110  19.104   0.770  0.2067 -0.5279 -0.2540
    1W        W56101  26.824  24.967   1.043  0.4443 -0.0618  0.0271
    1W        W56102  23.494  18.662   2.234  0.0406  0.0562 -0.1582
    1W        W56103   1.490  24.461   8.534 -0.1558 -0.1274 -0.3424
    1W        W56104  21.559  13.624   0.353 -0.0168 -0.0609 -0.1572
    1W        W56105   3.750  13.410   0.881  0.0027  0.2151  0.0258
    1W        W56106  27.705  22.530   6.499 -0.0393  0.1396  0.0936
    1W        W56107   9.892  19.021   1.719  0.4845 -0.0203 -0.0472
    1W        W56108  18.244  13.954   0.456  0.2034  0.2456 -0.1179
    1W        W56109  17.994  27.202   2.102  0.2264  0.0343  0.0857
    1W        W56110  29.777   0.012   6.627  0.1284  0.0867  0.2442
    1W        W56111  27.020  24.648   0.700 -0.2170 -0.3524  0.2391
    1W        W56112   6.458  14.166   7.661  0.0505 -0.3032 -0.2802
    1W        W56113  23.030   8.257   6.451 -0.1114 -0.0270 -0.1990
    1W        W56114   6.647  12.211   0.131 -0.2430 -0.2351 -0.0361
    1W        W56115  24.364   2.971   8.393  0.2307  0.0295 -0.3874
    1W        W56116  10.997   9.663   7.825  0.1512  0.1619  0.2741
    1W        W56117  16.514   3.734   0.293 -0.0950  0.2828  0.0949
    1W        W56118  19.914   2.558   8.800  0.3240 -0.2264  0.1316
    1W        W56119  23.955  21.184   7.855 -0.2707 -0.1100 -0.1981
    1W        W56120  28.616   3.930   8.811 -0.0994  0.0944  0.0735
    1W        W56121  18.655  23.473   8.636  0.0343 -0.2550  0.1706
    1W        W56122  16.856  11.420   1.890  0.0919  0.0598 -0.1823
    1W        W56123   9.029  26.913   7.580 -0.3357 -0.4854  0.0396
    1W        W56124   0.839  29.736   8.053 -0.0437 -0.1074 -0.0447
    1W        W56125  27.643  29.066   8.879 -0.0424  0.0927  0.1706
    1W        W56126   6.261  24.269   7.953 -0.2912  0.0993  0.4093
    1W        W56127   2.211  29.641   8.082 -0.1348 -0.0209 -0.1078
    1W        W56128  23.598  11.021   6.966 -0.1217 -0.2685 -0.2468
    1W        W56129   7.592  16.805   1.426  0.2439 -0.3297  0.0820
    1W        W56130   7.559  13.914   8.639  0.1675  0.3007  0.0737
    1W        W56131  29.516   8.934   1.594 -0.3292  0.1436  0.0124
    1W        W56132  27.170  19.872   7.327  0.1325  0.0841 -0.0080
    1W        W56133  25.043   0.575   0.258  0.1996  0.1291  0.2635
    1W        W56134   5.789  16.046   1.569 -0.1040  0.0455 -0.0456
    1W        W56135  17.168  28.310   8.626  0.1320 -0.0426 -0.0571
    1W        W56136  25.057   0.466   7.492  0.2586  0.3460 -0.1601
    1W        W56137  15.485   6.046   1.315  0.0795  0.0427  0.2147
    1W        W56138  24.705   1.401   0.825  0.0900 -0.0720 -0.0700
    1W        W56139  26.344   5.073   8.592 -0.0921 -0.0547  0.1065
    1W        W56140   8.698  26.311   9.128  0.1059  0.1152  0.0438
    1W        W56141  26.721  27.943   2.269  0.2511  0.4000  0.1314
    1W        W56142  21.777  25.644   9.103 -0.1270  0.1787 -0.0707
    1W        W56143  19.343  24.914   1.708 -0.1057  0.2097  0.0011
    1W        W56144  21.866   3.284   8.156  0.2775  0.1168  0.1331
    1W        W56145   5.415  15.833   1.170  0.0610 -0.0961  0.1705
    1W        W56146   1.612   0.851   1.739 -0.1025 -0.1010  0.1507
    1W        W56147   0.457   3.859   6.282 -0.0900 -0.0794  0.1226
    1W        W56148  13.469  18.289   1.348  0.0464  0.2758 -0.2718
    1W        W56149   7.571   2.303   2.589 -0.2032 -0.0697 -0.0355
    1W        W56150  13.101  15.632   1.929 -0.0678 -0.1356 -0.1036
    1W        W56151   9.296  27.386   7.120 -0.0560  0.2486 -0.0307
    1W        W56152   5.586  26.445   2.910  0.3174 -0.0872 -0.2081
    1W        W56153   9.062   9.339   0.875 -0.0353  0.0824  0.0893
    1W        W56154   0.625  11.054   0.177  0.1264  0.1917  0.0153
    1W        W56155  25.699  14.495   0.955 -0.2414 -0.1661 -0.0415
    1W        W56156  14.162   6.190   8.614 -0.2681  0.1343 -0.4089
    1W        W56157  28.249   0.700   0.388 -0.0642 -0.0488 -0.1531
    1W        W56158  23.545  28.297   1.157  0.1348  0.1661  0.0231
    1W        W56159  22.760  18.976   2.006  0.1625 -0.1676  0.3383
    1W        W56160   6.509   8.484   1.285  0.2628 -0.1225 -0.2272
    1W        W56161  13.245   3.224   7.881 -0.1411  0.3475 -0.2441
    1W        W56162   3.564  27.631   2.162 -0.2329 -0.0249 -0.0320
    1W        W56163   0.969  17.468   1.361  0.0321 -0.0014 -0.0147
    1W        W56164  17.547  29.732   0.661  0.0699  0.1346 -0.1359
    1W        W56165  22.395  14.973   0.475 -0.1561  0.0177  0.1086
    1W        W56166   4.521   9.225   7.939  0.2392 -0.1024 -0.1046
    1W        W56167  26.442  23.231   8.050 -0.0945  0.2376 -0.0667
    1W        W56168  21.656  28.991   2.674  0.0532 -0.2046  0.1288
    1W        W56169   9.899  18.171   1.385 -0.1780 -0.3483  0.0751
    1W        W56170  16.234  24.581   2.285 -0.2486  0.0350 -0.0329
    1W        W56171  12.037  15.140   0.516 -0.1715  0.4941 -0.1885
    1W        W56172  29.717  23.251   9.011 -0.2318  0.1466 -0.0207
    1W        W56173   1.152   6.794   9.363 -0.3181 -0.1242  0.1605
    1W        W56174  28.095   4.088   1.693 -0.1955 -0.2892  0.1608
    1W        W56175  15.497  11.424   7.821 -0.0299  0.1161 -0.1614
    1W        W56176  14.838   5.411   9.344  0.1853  0.1024 -0.0129
    1W        W56177  21.228  11.678   0.254  0.0147  0.0503  0.1996
    1W        W56178  13.427   8.394   6.872 -0.2250  0.3224 -0.0931
    1W        W56179  23.969   3.119   8.055 -0.0624 -0.1461 -0.0019
    1W        W56180  26.333  26.813   8.717  0.1047 -0.0895  0.1465
    1W        W56181   2.469  19.300   2.623  0.2200  0.3949 -0.1195
    1W        W56182   7.867  17.636   0.942  0.1066  0.4578 -0.0658
    1W        W56183  28.584  18.728   1.777 -0.2449  0.0799  0.2381
    1W        W56184  10.925  14.774   1.905  0.1430 -0.0868 -0.0833
    1W        W56185   6.668   7.867   2.651  0.0279 -0.0702  0.0893
    1W        W56186   5.502  10.163   7.470 -0.3563 -0.1178  0.2921
    1W        W56187  19.515   8.716   1.027 -0.1375  0.0044 -0.1400
    1W        W56188   4.320  27.825   2.393 -0.0044 -0.2175  0.0693
    1W        W56189  20.200   5.174   1.225 -0.2744  0.0023  0.0492
    1W        W56190  19.399  19.929   1.643  0.1195  0.0854 -0.0425
    1W        W56191   5.960   5.561   3.813  0.1812 -0.2409 -0.2401
    1W        W56192  27.186   7.461   2.307  0.1524 -0.1666 -0.0431
    1W        W56193  27.135  28.954   7.440 -0.3580  0.0204  0.0760
    1W        W56194   5.288  29.211   1.200  0.1075  0.0431 -0.0239
    1W        W56195  28.803  19.570   6.127 -0.1957 -0.0353  0.1579
    1W        W56196  12.319   1.777   7.341 -0.2623  0.1139 -0.1859
    1W        W56197  24.446   2.381   2.643 -0.1052  0.1765  0.1265
    1W        W56198  24.885   6.758   9.279  0.4040 -0.0074  0.0913
    1W        W56199  27.457  20.241   6.924 -0.0864  0.2453 -0.3865
    1W        W56200  22.071  14.125   7.212 -0.3074  0.1381  0.2177
    1W        W56201   3.245  22.554   5.698 -0.1911  0.1311  0.0665
    1W        W56202   5.919  14.891   7.674 -0.1921  0.1629  0.3527
    1W        W56203   7.018   9.836   8.128  0.2346  0.1888 -0.0164
    1W        W56204  26.104  23.957   9.457  0.0855  0.0289  0.2080
    1W        W56205   5.060   4.699   7.130  0.2539 -0.3575  0.2087
    1W        W56206  26.346   7.513   6.349  0.0562 -0.1600  0.2971
    1W        W56207  13.328  25.470   2.018  0.2211  0.2570 -0.0773
    1W        W56208   3.303  18.171   7.250  0.0691 -0.2250 -0.0512
    1W        W56209   6.412   3.834   1.335 -0.1717  0.0516 -0.0221
    1W        W56210  11.071  12.588   8.081  0.0098 -0.3364 -0.0768
    1W        W56211   3.063  25.041   9.228 -0.0311 -0.1517 -0.1192
    1W        W56212  22.990  10.235   5.873 -0.0227  0.1447  0.2433
    1W        W56213  26.103  18.438   8.314 -0.2037  0.0411  0.1013
    1W        W56214  16.423   0.672   0.132  0.2382 -0.1061  0.2548
    1W        W56215   8.292   8.860   9.308 -0.0649  0.1160 -0.2090
    1W        W56216  13.921  28.142   8.027  0.0024 -0.3003  0.3655
    1W        W56217  28.858  24.311   2.246 -0.0937  0.1134 -0.4904
    1W        W56218   0.814   2.816   1.675  0.3863 -0.2793 -0.0253
    1W        W56219  22.773   0.438   8.923  0.0422  0.1331  0.1163
    1W        W56220  25.189  16.398   8.136  0.0921  0.1189 -0.0161
    1W        W56221  19.205  17.454   1.620  0.0774 -0.0388  0.0940
    1W        W56222  16.531  15.716   7.571 -0.1419 -0.3040 -0.0936
    1W        W56223   3.718  27.911   8.467 -0.1430 -0.0594  0.1061
    1W        W56224   8.840  24.919   1.185  0.0510  0.0817 -0.2575
    1W        W56225  13.526   2.443   0.052  0.2496  0.1512  0.1742
    1W        W56226  21.164  17.539   8.831 -0.0827  0.0821  0.1517
    1W        W56227   0.377  26.811   2.766  0.2099 -0.0219  0.0982
    1W        W56228  21.528   2.035   7.348 -0.4074 -0.3450  0.0908
    1W        W56229   3.382   7.703   9.215 -0.0441  0.1361  0.2026
    1W        W56230   3.008  29.206   2.681  0.1599 -0.2050 -0.0867
    1W        W56231  17.852  10.630   1.521 -0.1291  0.0378  0.1559
    1W        W56232  20.074  22.166   0.054  0.1654  0.1296 -0.3770
    1W        W56233   0.986   9.751   1.957  0.0712  0.0047  0.0669
    1W        W56234  18.657  17.416   2.241  0.1565 -0.0246 -0.2530
    1W        W56235  24.790  28.767   6.932 -0.0208 -0.0539 -0.2759
    1W        W56236  16.690  26.650   8.045  0.2297 -0.2866  0.1024
    1W        W56237   3.466  10.501   7.580 -0.1938 -0.1055 -0.0727
    1W        W56238   3.669   0.289   1.476 -0.0264 -0.1155 -0.2024
    1W        W56239   1.778  20.547   2.190 -0.1851 -0.2185  0.1232
    1W        W56240   8.622   8.684   2.293 -0.4157 -0.1890  0.0021
    1W        W56241   2.914   8.711   2.563  0.1880  0.1048  0.1632
    1W        W56242  29.111  20.157   0.206  0.0376 -0.1148  0.1755
    1W        W56243   7.776   1.878   0.404 -0.1652  0.1707 -0.0595
    1W        W56244  26.556  13.354   7.766  0.0004 -0.2775  0.0928
    1W        W56245  29.668  11.491   7.115 -0.1476 -0.0714 -0.1665
    1W        W56246   2.307   9.333   6.767  0.1731  0.2564 -0.1633
    1W        W56247  28.477   3.636   0.472  0.0174 -0.0524  0.1749
    1W        W56248  25.322   5.174   2.510  0.0856 -0.0731 -0.2046
    1W        W56249  16.700  23.354   2.717  0.4341  0.0032  0.2071
    1W        W56250  22.612  10.668   7.574 -0.1661  0.0611  0.1779
    1W        W56251   4.083  22.344   0.415  0.0474  0.1446 -0.2237
    1W        W56252  22.595  19.590   0.871 -0.2662  0.0785 -0.1148
    1W        W56253  29.761  29.194   0.751 -0.0003 -0.0304 -0.1059
    1W        W56254  24.529  16.639   8.317 -0.0057 -0.2878  0.2320
    1W        W56255   5.626  13.965   5.808 -0.0412  0.1728 -0.1283
    1W        W56256  18.660  13.649   0.596  0.1117  0.0399  0.0852
    1W        W56257  19.182  13.827   0.636  0.1371 -0.0137 -0.0276
    1W        W56258   1.513  26.590   9.339  0.0371  0.0057  0.0795
    1W        W56259   2.645   8.304   0.991 -0.2462  0.1562 -0.2327
    1W        W56260   5.348  27.536   6.980  0.1657  0.1247 -0.2123
    1W        W56261  12.585   4.051   2.002  0.2032 -0.0134  0.0089
    1W        W56262   1.797  26.240   6.762 -0.1318 -0.0138  0.0245
    1W        W56263  25.737   7.452   5.732 -0.3303  0.1304  0.3012
    1W        W56264  27.127  22.002   6.942  0.1686  0.0177  0.3693
    1W        W56265  24.236  18.782   0.668 -0.1036 -0.3233  0.2573
    1W        W56266  20.932   0.831   9.324  0.1936 -0.0981  0.1194
    1W        W56267  15.035   2.648   7.323  0.1179 -0.2823  0.0117
    1W        W56268  15.336  10.753   0.588  0.1127 -0.1246  0.0239
    1W        W56269  26.888   7.028   0.610  0.0030 -0.4352 -0.0454
    1W        W56270   2.981   0.651   0.267  0.1302 -0.1393  0.1431
    1W        W56271   4.322  29.239   2.847  0.1594 -0.0061  0.3318
    1W        W56272  24.082  23.327   1.998 -0.0461 -0.0192 -0.2239
    1W        W56273  26.986   2.802   0.239  0.2221 -0.1396 -0.1236
    1W        W56274  28.323  29.371   0.442  0.0197 -0.1770 -0.2002
    1W        W56275  21.019   9.752   8.305 -0.2946 -0.0204  0.1388
    1W        W56276  22.266  16.643   8.797  0.3105  0.1202  0.1511
    1W        W56277  10.459  13.521   2.423 -0.0356 -0.0216 -0.1052
    1W        W56278  28.235  21.174   0.642  0.0854 -0.0174 -0.0904
    1W        W56279   2.916   3.929   1.724 -0.1172 -0.2051  0.0474
    1W        W56280  22.698   2.343   0.496 -0.0851 -0.0214 -0.1230
    1W        W56281   3.367  13.324   7.346  0.1392 -0.0006  0.2731
    1W        W56282   6.099   4.819   8.633 -0.1443 -0.1353 -0.1985
    1W        W56283   3.049   4.828   7.561 -0.0367  0.0121 -0.0264
    1W        W56284   7.931   1.755   1.838 -0.1520  0.2303  0.0415
    1W        W56285  19.274  13.569   6.997  0.0035  0.0694 -0.0917
    1W        W56286   6.713  16.246   0.364 -0.0781 -0.0656  0.0527
    1W        W56287   8.205   5.194   1.498 -0.3755  0.0181 -0.2788
    1W        W56288   9.452  28.897   7.957  0.1210  0.2874  0.0572
    1W        W56289   5.568   6.081   0.422  0.1450  0.0661 -0.0284
    1W        W56290  28.236  16.321   1.529 -0.1662  0.2593 -0.0168
    1W        W56291  27.929   2.668   1.293 -0.1671  0.4055  0.1287
    1W        W56292  17.376  29.265   2.389 -0.0090 -0.3220  0.0385
    1W        W56293   4.782  29.804   7.293 -0.1172  0.0691  0.1117
    1W        W56294  28.946  17.856   0.028 -0.0074  0.0967 -0.1125
    1W        W56295  21.313   0.473   9.314 -0.3043 -0.1833  0.3007
    1W        W56296  26.716  28.347   2.709  0.0442  0.0681  0.0617
    1W        W56297   5.370  28.728   2.463 -0.0300  0.0395 -0.0571
    1W        W56298   8.654  14.863   2.070 -0.4664  0.0939 -0.0667
    1W        W56299  14.879   5.635   7.449  0.0478  0.0136 -0.0463
    1W        W56300  29.256  21.118   8.159 -0.5066 -0.1824  0.0869
    1W        W56301  24.086  16.069   1.436 -0.0701 -0.0889 -0.0447
    1W        W56302  29.202  15.347   1.372 -0.0977  0.4308  0.0648
    1W        W56303  23.447   5.151   1.466 -0.1018  0.0545 -0.0143
    1W        W56304   6.079  11.008   2.637  0.1929  0.0049 -0.2897
    1W        W56305  13.349  21.777   0.281  0.2059  0.1251 -0.1665
    1W        W56306   4.575   5.475   8.219 -0.0619  0.0604 -0.1626
    1W        W56307  20.708  29.551   1.100 -0.0412  0.1474  0.1245
    1W        W56308  15.721  28.280   0.866 -0.4053  0.0649  0.1322
    1W        W56309   2.970   0.480   0.824 -0.0152 -0.2010 -0.0647
    1W        W56310  18.754  14.831   1.280 -0.0497 -0.3816 -0.0849
    1W        W56311  20.668   7.408   2.323  0.2759 -0.0840 -0.2789
    1W        W56312  18.613   4.040   7.537  0.0168  0.2508 -0.1796
    1W        W56313   3.960  27.069   2.904 -0.2076 -0.1669 -0.1424
    1W        W56314  27.474  12.217   7.480 -0.0682 -0.1620 -0.0413
    1W        W56315   7.261  26.668   0.533 -0.2335  0.3579 -0.3730
    1W        W56316  11.138   9.601   6.960  0.1936  0.3103 -0.0007
    1W        W56317  14.502   0.492   0.882 -0.0556  0.1775  0.0352
    1W        W56318   4.490   2.198   8.434  0.2337  0.0365  0.1440
    1W        W56319  26.359   8.895   8.119 -0.1936  0.3409  0.0337
    1W        W56320  28.426   6.053   6.693 -0.0514 -0.0425 -0.3030
    1W        W56321   4.015  18.718   7.889 -0.0886  0.0294 -0.1679
    1W        W56322  15.075  29.326   6.559  0.0360 -0.0376 -0.0119
    1W        W56323   4.443  28.752   1.314  0.0470 -0.0294 -0.5463
    1W        W56324   3.995   6.315   9.007 -0.1107 -0.0738  0.0082
    1W        W56325  18.930   3.216   0.373 -0.0193  0.1032 -0.1588
    1W        W56326   7.995  17.353   6.148  0.0261 -0.3578 -0.0109
    1W        W56327   7.055   3.322   1.747 -0.0325 -0.1206  0.0456
    1W        W56328  26.431  14.993   6.563  0.1472  0.0293  0.1719
    1W        W56329   2.221  25.666   0.769 -0.1028 -0.2229  0.0014
    1W        W56330  10.186   0.927   0.130  0.0773 -0.3557  0.0887
    1W        W56331   1.845  16.098   7.732 -0.1076  0.0520  0.0150
    1W        W56332  21.294  10.961   7.171  0.1966 -0.1034 -0.0351
    1W        W56333   4.082  11.977   0.402 -0.1197  0.2236 -0.0291
    1W        W56334  17.280  20.046   0.298  0.2161  0.0384  0.1796
    1W        W56335  29.284  23.972   9.165  0.0126 -0.2319 -0.1329
    1W        W56336  25.465   7.405   1.226 -0.0647 -0.0556  0.0896
    1W        W56337  24.318  22.990   8.445 -0.0836 -0.0222 -0.3617
    1W        W56338  17.224  29.519   8.972 -0.2385  0.3043  0.2569
    1W        W56339  26.458  21.147   7.495 -0.1173 -0.0458 -0.2257
    1W        W56340  19.624   7.479   8.382  0.0298  0.0114 -0.0204
    1W        W56341  27.514  22.393   8.212  0.1185 -0.1534 -0.1273
    1W        W56342  15.421  26.201   2.433  0.1395  0.1177 -0.0950
    1W        W56343  18.760   7.086   1.429 -0.2243 -0.4938  0.0676
    1W        W56344  17.813  23.801   7.509 -0.2515 -0.1824  0.0142
    1W        W56345   7.233  21.129   6.922  0.1776  0.1070 -0.3330
    1W        W56346  11.966  14.542   8.769 -0.0848 -0.0691  0.2593
    1W        W56347  14.881  23.421   0.682  0.2478  0.0133  0.0734
    1W        W56348  23.201  10.229   8.221 -0.0691  0.1388 -0.3243
    1W        W56349  14.465  22.261   0.956  0.2490  0.0151  0.1398
    1W        W56350   9.652   7.913   1.623 -0.0346  0.1534  0.0907
    1W        W56351  23.194   6.922   6.771 -0.1421  0.0477 -0.0787
    1W        W56352   1.408  14.981   0.326 -0.3475 -0.1571  0.1980
    1W        W56353   5.819   4.084   7.093 -0.0129  0.1871  0.0909
    1W        W56354   8.227   1.978   9.058 -0.1766 -0.1031  0.0497
    1W        W56355   6.960  28.051   0.097  0.1457 -0.1089  0.0992
    1W        W56356  24.160  21.960   0.241 -0.3688 -0.1435 -0.0008
    1W        W56357  19.564  29.170   0.184 -0.1028  0.1294  0.0730
    1W        W56358  19.929   8.411   6.460  0.2700  0.0001 -0.0325
    1W        W56359  21.175   8.380   8.034 -0.0208  0.3396 -0.0564
    1W        W56360   9.329  20.622   1.792  0.2639 -0.1808  0.2688
    1W        W56361  24.221   3.897   0.265 -0.1560  0.0896  0.1461
    1W        W56362  28.355  13.273   1.109 -0.1036 -0.3888 -0.0477
    1W        W56363  17.985  23.803   7.977 -0.2230 -0.1767 -0.0031
    1W        W56364  21.273   0.440   1.633  0.3480 -0.0320 -0.1274
    1W        W56365  25.412   8.552   0.038  0.3067  0.2512  0.1760
    1W        W56366  21.885  12.759   0.914  0.1413  0.0591 -0.1742
    1W        W56367   5.649  18.424   0.475 -0.0361 -0.1444  0.0766
    1W        W56368  24.549  17.875   8.935 -0.0849 -0.0193 -0.3590
    1W        W56369   2.701   3.492   1.237 -0.0766  0.1185  0.2977
    1W        W56370   4.890  22.975   8.878  0.3221  0.3046  0.1225
    1W        W56371  12.639  25.364   0.108 -0.0027  0.1299 -0.0826
    1W        W56372  23.828  28.754   6.680 -0.2181 -0.0294  0.1546
    1W        W56373  26.731  18.760   1.040 -0.0341  0.1791 -0.2565
    1W        W56374  14.979   9.317   0.597  0.1093  0.2338 -0.1322
    1W        W56375   8.359   3.071   8.350  0.0068  0.0472  0.2029
    1W        W56376  28.636  24.739   7.453  0.1299 -0.1496 -0.1803
    1W        W56377   1.444   3.295   1.032 -0.0596 -0.2994  0.0671
    1W        W56378  29.782  21.235   0.547  0.0326  0.0409  0.0429
    1W        W56379   1.084  18.219   0.497  0.1696  0.0217  0.0594
    1W        W56380  10.594   2.484   2.280 -0.0074  0.3735  0.2378
    1W        W56381   6.850   6.395   3.675 -0.2852  0.3344 -0.1912
    1W        W56382   4.974  20.238   0.721  0.2146 -0.0258 -0.2895
    1W        W56383   9.795  13.608   8.767  0.2323 -0.0042 -0.2934
    1W        W56384  24.141  18.569   7.031  0.2245  0.1803 -0.0006
    1W        W56385  13.336  22.488   6.869  0.0353  0.0472  0.0857
    1W        W56386   2.545  11.926   7.613  0.1277 -0.3471 -0.1190
    1W        W56387  16.069   2.101   1.946 -0.1462  0.2384  0.3283
    1W        W56388  21.810  13.089   6.914 -0.1509 -0.0757 -0.2295
    1W        W56389  14.742   8.647   2.368  0.0103 -0.1979 -0.2303
    1W        W56390  18.543   2.827   1.205 -0.0026  0.2095  0.0074
    1W        W56391   3.638  28.170   0.227  0.2218 -0.1854 -0.0202
    1W        W56392  18.806   3.618   2.147  0.3679  0.0180  0.1424
    1W        W56393   5.107   9.168   8.134  0.0633 -0.2151 -0.1704
    1W        W56394  27.041  23.418   2.844 -0.2837  0.0101  0.2014
    1W        W56395  20.060  10.800   0.007  0.1632 -0.0429  0.1362
    1W        W56396   4.679  28.105   0.096 -0.2771  0.1691 -0.3561
    1W        W56397  28.351  19.681   1.431 -0.2783 -0.2917 -0.0217
    1W        W56398   5.417   3.577   0.858 -0.0700  0.2857  0.0471
    1W        W56399  28.217  23.876   9.190 -0.0744 -0.1637 -0.4097
    1W        W56400  19.187  27.167   1.509  0.2294  0.2565  0.1575
    1W        W56401  22.960  11.763   2.317  0.1443  0.0649 -0.1039
    1W        W56402   7.451   2.543   7.057  0.1049 -0.1007 -0.1700
    1W        W56403  18.313   1.979   6.667  0.1040  0.5489 -0.2873
    1W        W56404  25.506  25.952   7.352 -0.1377 -0.1174  0.0794
    1W        W56405  22.563  14.483   6.110  0.3161 -0.0203  0.1729
    1W        W56406  12.109  20.154   1.355  0.1036  0.0505  0.0163
    1W        W56407  21.888  18.078   9.046  0.3786  0.0899  0.1099
    1W        W56408  26.623  28.612   8.358 -0.0441 -0.0067 -0.1873
    1W        W56409  23.292  27.190   7.843 -0.0249 -0.0622 -0.0024
    1W        W56410   4.101  28.788   6.633 -0.1944 -0.0172  0.0346
    1W        W56411  16.391  13.902   7.072 -0.0241 -0.0575 -0.0059
    1W        W56412  22.926  23.346   0.964  0.0958 -0.3772 -0.0280
    1W        W56413   9.025  14.346   2.045 -0.0286 -0.0260 -0.0125
    1W        W56414   1.126  13.190   0.368 -0.1586 -0.1189  0.0093
    1W        W56415  25.138  11.891   6.488  0.0658  0.0449  0.1038
    1W        W56416  29.720   1.344   2.784  0.2026 -0.3210 -0.2230
    1W        W56417  24.359  26.958   2.747  0.2857 -0.1070  0.0353
    1W        W56418  26.457  15.475   1.457 -0.2126 -0.0497  0.2968
    1W        W56419  23.826  20.803   0.516  0.2395 -0.0393 -0.0570
    1W        W56420   1.676  29.468   3.175 -0.2375  0.1074  0.0682
    1W        W56421  15.753  24.631   7.008  0.2451  0.0491 -0.5037
    1W        W56422  25.107  27.407   7.154  0.3811 -0.3928 -0.2619
    1W        W56423   6.769  15.675   0.531 -0.1477 -0.2375  0.0599
    1W        W56424  28.724  21.728   6.537 -0.1253  0.1123 -0.3083
    1W        W56425   7.356  29.670   7.222 -0.1018 -0.0405  0.1069
    1W        W56426  11.614  28.271   6.556 -0.2356  0.3452  0.0807
    1W        W56427   5.378  15.036   7.506  0.1178  0.0949  0.2857
    1W        W56428  14.216   2.815   0.636  0.0641 -0.1688 -0.0800
    1W        W56429  24.397  17.243   0.704  0.1059  0.0740 -0.0627
    1W        W56430  10.284   1.310   1.885 -0.4162  0.2355 -0.0528
    1W        W56431   0.645  23.625   8.228 -0.0985  0.0325 -0.1837
    1W        W56432  16.258  11.484   7.830 -0.1192 -0.0711  0.0605
    1W        W56433   5.347  10.247   2.606  0.1144 -0.0378  0.0205
    1W        W56434  25.318  20.102   3.267 -0.4488 -0.2673  0.3350
    1W        W56435   8.827  28.515   0.467  0.1310  0.1777  0.0519
    1W        W56436   1.178   3.197   2.825  0.0537 -0.0727  0.0697
    1W        W56437  22.946  12.123   1.019 -0.0598  0.0759 -0.0884
    1W        W56438   0.261  14.181   0.429 -0.2277  0.3130  0.0264
    1W        W56439   4.570   6.658   7.123  0.0220 -0.1008  0.0671
    1W        W56440   6.732  24.165   7.791 -0.0899  0.1575  0.0645
    1W        W56441  25.016  14.869   1.183 -0.0899  0.1009 -0.3710
    1W        W56442   0.108  18.759   7.796  0.0794  0.0728 -0.1047
    1W        W56443   1.584  16.396   1.837 -0.0164 -0.1636  0.1902
    1W        W56444  21.440  23.230   8.033 -0.2863 -0.3681 -0.2594
    1W        W56445   1.212  21.476   1.677  0.2313 -0.0655 -0.1143
    1W        W56446   8.498  15.253   1.737  0.0426  0.1460 -0.1678
    1W        W56447  14.660  27.323   2.185 -0.1025 -0.0245  0.0022
    1W        W56448  10.107  22.358   1.992  0.0318  0.0407  0.0698
    1W        W56449  21.113  26.842   2.027  0.1268 -0.0078  0.0732
    1W        W56450  25.607  16.568   7.439  0.3476  0.1715  0.1500
    1W        W56451   6.310  22.933   6.056 -0.0571  0.1927  0.2027
    1W        W56452   4.193   2.655   0.913  0.2798  0.0213 -0.0251
    1W        W56453  10.534  26.028   6.993  0.0946 -0.0595  0.1892
    1W        W56454   3.570   7.949   8.150 -0.0800  0.1600  0.1942
    1W        W56455  22.738  18.207   1.259  0.3349  0.2502 -0.0005
    1W        W56456  28.084  15.816   0.108  0.0839  0.1352 -0.1731
    1W        W56457  21.804  22.868   7.832  0.0310 -0.0149  0.0980
    1W        W56458   4.719   5.940   8.400  0.4016  0.1676  0.1725
    1W        W56459  29.128  10.819   0.216 -0.1860  0.2153 -0.3242
    1W        W56460   8.932  14.474   9.224 -0.1877 -0.2978 -0.1685
    1W        W56461   9.431  27.193   8.572 -0.1673 -0.1444 -0.1224
    1W        W56462   5.226  23.024   0.706 -0.1166 -0.2524  0.3967
    1W        W56463  23.043   8.955   7.708  0.0973 -0.0144  0.0539
    1W        W56464  21.199   9.350   8.070  0.0188 -0.1162  0.1210
    1W        W56465   2.772   1.730   6.533  0.0593  0.1868  0.2159
    1W        W56466   2.129  24.034   0.503  0.2343  0.3174 -0.0758
    1W        W56467  10.664  28.180   8.887 -0.0360  0.2471  0.1015
    1W        W56468   7.877  20.887   9.180  0.1351  0.0099 -0.2284
    1W        W56469  17.517   5.208   8.671 -0.0153  0.1937 -0.3799
    1W        W56470  20.276   4.621   8.891  0.0551 -0.0071 -0.0029
    1W        W56471  24.095  29.729   7.679  0.0624 -0.1668 -0.0927
    1W        W56472   0.723   4.436   2.470  0.0651 -0.1110 -0.1581
    1W        W56473   8.760  19.429   7.993  0.0484  0.0668 -0.0166
    1W        W56474  20.524   2.009   9.106 -0.1247 -0.4579  0.2777
    1W        W56475   0.538  17.707   2.394 -0.0020  0.0385 -0.1538
    1W        W56476  12.458   1.023   2.662 -0.1073 -0.1427  0.0555
    1W        W56477  17.105   5.706   7.656  0.0712  0.0137 -0.3968
    1W        W56478  20.844   2.533   9.385 -0.2817 -0.1298 -0.1031
    1W        W56479  26.558   2.718   8.335  0.1059  0.0377  0.0308
    1W        W56480  14.435   2.154   2.299  0.3027 -0.1503  0.0443
    1W        W56481  11.619  21.297   1.491 -0.1326 -0.1981 -0.1978
    1W        W56482  22.689  18.143   2.392 -0.3584 -0.0663 -0.1551
    1W        W56483  13.271   7.729   8.586 -0.1164  0.1030 -0.0404
    1W        W56484  16.245  10.529   8.821 -0.2165  0.0018 -0.3026
    1W        W56485  15.054  18.472   2.247  0.0051 -0.0058  0.0122
    1W        W56486   9.364   0.043   1.120 -0.2598 -0.0837 -0.0331
    1W        W56487  11.966   3.624   3.091  0.4208  0.0630  0.1742
    1W        W56488   5.392  11.447   7.529 -0.1994  0.1201  0.0156
    1W        W56489  25.873  12.180   8.022  0.0964 -0.1214  0.2462
    1W        W56490  25.048  21.106   1.378 -0.1386  0.0131  0.0458
    1W        W56491  25.795  20.137   8.853 -0.1693 -0.0310  0.1257
    1W        W56492  29.123   8.791   1.943  0.1835  0.0958  0.1123
    1W        W56493  13.497  10.059   7.310  0.1819 -0.0291  0.0658
    1W        W56494   6.035   1.681   0.138 -0.0114  0.3160 -0.1455
    1W        W56495  14.419  12.121   8.054 -0.0650 -0.1765 -0.0207
    1W        W56496  18.384  14.073   6.915 -0.1188  0.3464 -0.2660
    1W        W56497  16.211   4.874   9.221 -0.2204 -0.2605  0.3012
    1W        W56498   7.991  25.432   7.347  0.2501 -0.1635 -0.0960
    1W        W56499   9.586  19.762   0.474 -0.3061 -0.2127  0.1617
    1W        W56500  12.852   5.112   7.777  0.0247 -0.2060 -0.1553
    1W        W56501  10.094   9.154   0.363 -0.1691  0.0350  0.2345
    1W        W56502  22.778   8.436   0.370 -0.0492  0.0309  0.3518
    1W        W56503  27.499   0.315   8.569  0.1621  0.1859  0.0458
    1W        W56504  28.941   1.195   6.688 -0.1267  0.0317  0.1505
    1W        W56505  14.474   2.996   9.267 -0.2687 -0.1349  0.0388
    1W        W56506  19.917  14.575   1.645  0.2712  0.2170 -0.1661
    1W        W56507  15.852  17.436   7.625 -0.1061  0.0664  0.2327
    1W        W56508  24.236  17.669   0.903  0.0123  0.1182 -0.1440
    1W        W56509  24.305  20.449   9.269  0.1114  0.0094  0.0589
    1W        W56510  13.956   5.705   3.685  0.2698 -0.1249  0.2436
    1W        W56511   9.075  17.170   8.770 -0.0718 -0.0475 -0.0078
    1W        W56512  17.588  25.975   8.886 -0.1494 -0.3953  0.1286
    1W        W56513  29.524  24.499   8.110 -0.0167  0.2373 -0.0881
    1W        W56514   6.218  12.407   2.389 -0.0457  0.1149  0.1613
    1W        W56515  18.477  28.280   9.077 -0.0759  0.4046  0.0029
    1W        W56516  25.730   1.672   7.983  0.0856 -0.1633  0.1157
    1W        W56517  12.839  26.521   2.636  0.1226 -0.1267  0.4184
    1W        W56518  10.527  22.813   6.741 -0.0992 -0.0094  0.3546
    1W        W56519   5.127  28.364   0.603  0.0237 -0.0164  0.1275
    1W        W56520  25.581   9.906   1.025 -0.4028  0.2695  0.6492
    1W        W56521  21.826  15.482   8.916  0.0147 -0.0138 -0.1958
    1W        W56522   4.332  23.374   0.682 -0.1080  0.4562 -0.0623
    1W        W56523  18.708  17.565   0.442 -0.1426  0.2919 -0.0552
    1W        W56524  21.425   1.799   8.838  0.0045  0.0381  0.2408
    1W        W56525   2.967  29.304   8.554  0.0626 -0.0499 -0.0173
    1W        W56526  14.231  21.790   9.031 -0.0336  0.0711  0.1014
    1W        W56527  22.038  21.160   9.289 -0.2302  0.0809 -0.0112
    1W        W56528   7.702   7.030   2.416  0.1875  0.2277 -0.0410
    1W        W56529   8.034  26.822   0.404  0.3058  0.1825  0.1918
    1W        W56530  16.298  14.579   0.542  0.2583 -0.2279  0.1225
    1W        W56531  12.609  14.921   8.069 -0.1095 -0.0670 -0.0704
    1W        W56532  19.015  26.508   2.467  0.0319  0.1204 -0.0647
    1W        W56533   1.683  21.788   6.416  0.1557 -0.0801  0.1245
    1W        W56534  24.934  20.692   1.869 -0.0025 -0.4215  0.0239
    1W        W56535   3.764   9.556   1.047  0.2864  0.0757 -0.1318
    1W        W56536  15.446   6.754   0.174 -0.0492  0.0085  0.0595
    1W        W56537   6.956  28.735   7.805 -0.1072 -0.1948  0.1281
    1W        W56538  27.165  29.505   7.515  0.0315  0.1866  0.2733
    1W        W56539  28.296   6.718   7.512  0.0770  0.3757  0.0014
    1W        W56540  12.619  12.015   0.024 -0.1065 -0.0137  0.0278
    1W        W56541  25.519  10.221   8.599  0.0096 -0.2440 -0.1756
    1W        W56542   0.885  20.863   9.087 -0.1739  0.0955  0.0116
    1W        W56543  23.662  24.166   9.078  0.3401  0.0421  0.1200
    1W        W56544  25.296  10.760   6.836 -0.2241  0.1107  0.1146
    1W        W56545  11.519  11.884   2.902  0.2290  0.2660 -0.5347
    1W        W56546  16.641  21.425   2.811  0.2306  0.1139  0.2435
    1W        W56547  12.755   8.384   8.875 -0.1696 -0.0137  0.3926
    1W        W56548   0.521  19.292   6.475 -0.0783  0.0868  0.0495
    1W        W56549  16.405  13.291   8.808 -0.1470  0.0659  0.0957
    1W        W56550  17.950  13.768   7.597  0.4295  0.0121  0.0006
    1W        W56551   6.631  18.185   0.806  0.0695 -0.0298 -0.1079
    1W        W56552  28.217  12.648   1.519 -0.0687 -0.2240 -0.0207
    1W        W56553   4.043   0.300   3.161 -0.3443  0.1398  0.1402
    1W        W56554  22.058  10.926   8.337  0.0978  0.1731 -0.2504
    1W        W56555  14.072   0.933   8.270 -0.0561 -0.1685 -0.3071
    1W        W56556  15.792  15.971   7.165  0.1584 -0.2993 -0.0591
    1W        W56557  22.038   3.981   8.168  0.1928  0.0107 -0.1130
    1W        W56558  13.177  29.659   0.593 -0.1595 -0.2293  0.1474
    1W        W56559  15.028   8.494   1.945 -0.2200  0.2804  0.2308
    1W        W56560   9.206  26.720   0.233  0.1952  0.0600  0.1283
    1W        W56561  18.325   4.729   8.458  0.0949  0.1409 -0.2126
    1W        W56562   6.241  11.127   1.186  0.0829  0.0453  0.0161
    1W        W56563  24.210   8.431   1.889 -0.0751 -0.2228 -0.1342
    1W        W56564   8.132  26.074   0.976  0.0753  0.2201 -0.1582
    1W        W56565   3.399  12.960   1.575  0.1871 -0.0611  0.2441
    1W        W56566  22.921  17.040   8.801 -0.0139  0.3019  0.3754
    1W        W56567  13.733  12.640   1.155  0.0416 -0.0360 -0.1251
    1W        W56568  17.870  21.939   9.238  0.0788 -0.0816  0.0148
    1W        W56569  29.701   4.135   8.431  0.0755 -0.0046 -0.1375
    1W        W56570   7.955  26.627   2.219  0.0994  0.0615 -0.0775
    1W        W56571  24.715  24.868   1.116 -0.0764  0.0004 -0.1305
    1W        W56572   2.787  29.085   6.661  0.2168  0.3295 -0.3476
    1W        W56573  19.291  24.741   3.046 -0.0181 -0.0300 -0.0563
    1W        W56574   7.771   0.847   8.268  0.1172 -0.3532  0.2490
    1W        W56575  11.583   6.787   7.844  0.0172  0.1547  0.3077
    1W        W56576   6.200  12.908   3.276 -0.3359 -0.1897 -0.1303
    1W        W56577  22.739  29.547   8.568 -0.2686 -0.2001 -0.2149
    1W        W56578  29.707  12.086   7.017 -0.0128  0.3218 -0.1213
    1W        W56579  27.399  14.762   0.307 -0.2285 -0.1854 -0.3020
    1W        W56580   0.921  14.262   8.178  0.1694 -0.0074  0.2726
    1W        W56581  11.146   3.464   9.402  0.3825  0.0404  0.1372
    1W        W56582  29.688  18.857   2.621  0.0611  0.2092 -0.0285
    1W        W56583  10.879  12.990   2.329  0.2317 -0.2212 -0.2828
    1W        W56584  18.093  11.514   6.869  0.0072  0.4550 -0.0856
    1W        W56585  10.354   2.004   0.159  0.1482  0.0271 -0.0071
    1W        W56586   9.864   6.247   3.144 -0.1382 -0.0328 -0.0533
    1W        W56587  29.659  18.342   8.459 -0.0519  0.3666  0.0819
    1W        W56588  20.205  17.921   7.042  0.1717  0.0205  0.2751
    1W        W56589  16.460   4.061   9.259 -0.0189  0.2151 -0.0204
    1W        W56590  12.038  24.355   0.263 -0.0530 -0.1360  0.1770
    1W        W56591  23.482  23.168   7.143 -0.0053  0.1404  0.0412
    1W        W56592  22.151  24.254   7.575  0.0364 -0.1675 -0.0633
    1W        W56593   1.092  16.566   1.712  0.1740  0.1884  0.1689
    1W        W56594  14.668  27.716   9.264  0.0911  0.3107 -0.1167
    1W        W56595  25.245  26.986   1.102  0.1668  0.0683 -0.0204
    1W        W56596  17.238  19.584   0.474  0.0195  0.1318 -0.2733
    1W        W56597   0.974  21.244   7.134 -0.1438 -0.2764 -0.0446
    1W        W56598   4.305  22.933   0.401  0.0084 -0.3174 -0.1949
    1W        W56599  29.442  21.639   1.392 -0.1692 -0.1242  0.3609
    1W        W56600  14.473   4.988   1.585  0.1236 -0.1525 -0.1327
    1W        W56601   7.953  14.979   0.227  0.0681  0.1237 -0.0620
    1W        W56602   5.611   3.991   7.558  0.0353  0.1842  0.0085
    1W        W56603   2.518   2.249   6.315 -0.2336 -0.0192 -0.1126
    1W        W56604  19.505   0.751   7.210  0.0617  0.1236 -0.2228
    1W        W56605  23.980   7.677   0.273 -0.0415 -0.1262 -0.2846
    1W        W56606  11.481  12.170   8.455  0.3100 -0.0642  0.1204
    1W        W56607  25.782  29.365   1.712  0.1197  0.0230 -0.1855
    1W        W56608   4.869   4.410   8.819  0.2917  0.0428 -0.1197
    1W        W56609  21.088  24.754   0.922  0.4669  0.1144 -0.0809
    1W        W56610  13.299  13.411   7.648  0.0505 -0.2509 -0.2251
    1W        W56611  10.949  27.729   8.888  0.2178 -0.1771  0.0420
    1W        W56612  17.150  27.411   8.223 -0.2076  0.0606 -0.4417
    1W        W56613   5.601   5.056   2.820  0.0535  0.2175 -0.1705
    1W        W56614  14.618  22.430   0.381 -0.1697  0.1292  0.1026
    1W        W56615  14.659  20.811   0.162  0.1708  0.0231 -0.0492
    1W        W56616  18.933   0.298   8.146 -0.0599  0.3957 -0.2286
    1W        W56617  14.873  21.493   1.318  0.0638  0.0583  0.2080
    1W        W56618  23.682  23.463   8.577 -0.3025  0.0665  0.0459
    1W        W56619  28.455   8.984   1.210 -0.1565  0.0573  0.0757
    1W        W56620   6.927  23.385   8.780  0.1089 -0.1412  0.1574
    1W        W56621  14.303  13.268   1.568 -0.0474  0.2217  0.1977
    1W        W56622  12.647  16.872   6.266  0.1622 -0.1482 -0.0716
    1W        W56623  11.871  20.863   2.415  0.1244  0.0749 -0.5159
    1W        W56624  12.939   8.513   2.662  0.1144 -0.3508  0.0700
    1W        W56625  18.670   8.713   8.331 -0.1386  0.0906  0.4137
    1W        W56626  19.072  28.935   1.236  0.2150  0.0776  0.3014
    1W        W56627  24.262  29.576   7.061  0.0020 -0.0639 -0.0510
    1W        W56628   2.628  11.208   1.565 -0.1190 -0.0646 -0.0529
    1W        W56629  26.576  10.383   7.141 -0.1244  0.0695 -0.2278
    1W        W56630   6.394  27.590   2.610  0.0037 -0.0332  0.2538
    1W        W56631  11.578  16.638   6.988  0.0952  0.1572 -0.1812
    1W        W56632  25.245   9.039   1.100 -0.2685 -0.1658 -0.0226
    1W        W56633  15.938  24.258   0.875 -0.1086  0.2433 -0.0066
    1W        W56634  28.614   5.689   2.417  0.1667 -0.2658  0.1385
    1W        W56635  18.438   1.190   7.768  0.2676  0.1552  0.3528
    1W        W56636   1.282  13.518   1.794  0.0846 -0.1059  0.1355
    1W        W56637  21.229  12.570   1.856 -0.0848  0.1195  0.1771
    1W        W56638   6.702   3.405   0.310  0.1553 -0.0712  0.0981
    1W        W56639  19.779  19.939   9.269  0.2422  0.5763 -0.2249
    1W        W56640  27.907  28.791   6.602  0.0720  0.0901 -0.1067
    1W        W56641  22.538   5.442   0.683  0.0795  0.0220  0.0919
    1W        W56642  24.876   7.203   8.125 -0.1375 -0.0002  0.2836
    1W        W56643  12.260  14.943   2.307  0.1336 -0.1595  0.2854
    1W        W56644   6.379   0.757   1.587  0.1290 -0.2505  0.1414
    1W        W56645  16.980  12.206   6.951  0.1835  0.0505 -0.2868
    1W        W56646   3.866  19.081   1.234 -0.3342  0.1960  0.1085
    1W        W56647  14.799   6.792   2.955 -0.2349  0.1447 -0.1388
    1W        W56648  27.440  26.291   1.297  0.0154  0.0256  0.1619
    1W        W56649  13.913   3.208   1.695  0.1230  0.4226 -0.0572
    1W        W56650  18.921  23.937   0.021  0.4542  0.2028 -0.0383
    1W        W56651  29.393   0.397   0.328  0.0040 -0.1032 -0.1357
    1W        W56652  22.875   9.457   6.496  0.0836  0.1546 -0.0210
    1W        W56653  23.185  14.699   0.268  0.0307 -0.0790  0.1529
    1W        W56654   1.495   0.446   7.211  0.2431 -0.2260  0.0207
    1W        W56655  18.754  27.017   1.108 -0.1499 -0.1695 -0.0705
    1W        W56656  12.852  17.288   0.735  0.1129 -0.0129 -0.0123
    1W        W56657   2.035   4.295   9.433 -0.0837 -0.0533  0.1762
    1W        W56658  19.324   1.338   2.460 -0.3089  0.1476 -0.2700
    1W        W56659  11.807   8.458   0.578 -0.0467 -0.0877 -0.1181
    1W        W56660  19.647   2.090   8.875  0.0246 -0.0865  0.1518
    1W        W56661  20.394   7.634   5.973 -0.4040 -0.0421  0.0870
    1W        W56662  16.624   6.989   8.251 -0.0204 -0.0405  0.1432
    1W        W56663  11.054  22.125   1.797 -0.0143 -0.1352 -0.0094
    1W        W56664   6.229  19.610   0.341 -0.1158  0.3067 -0.0758
    1W        W56665   2.916  27.676   2.847 -0.0510 -0.0514 -0.0511
    1W        W56666   8.028   0.956   6.756 -0.1046  0.0829 -0.0051
    1W        W56667  16.396  25.474   1.404 -0.1773 -0.0174  0.2780
    1W        W56668  25.281   7.020   9.126  0.3998 -0.1604 -0.2465
    1W        W56669   5.011  17.925   0.108 -0.1958  0.1663 -0.2346
    1W        W56670   5.001  10.813   3.218  0.0644 -0.0020  0.1170
    1W        W56671  11.514   3.254   2.360 -0.0545  0.0292  0.0611
    1W        W56672  19.306   2.914   2.913  0.1544  0.1027  0.1170
    1W        W56673   8.801   4.461   2.976  0.2076  0.1965  0.0674
    1W        W56674  17.328  11.689   8.873  0.0752 -0.3369 -0.0282
    1W        W56675   2.633   0.958   8.565 -0.2399 -0.1236  0.0036
    1W        W56676  29.698  12.963   7.898  0.0986 -0.4099 -0.1343
    1W        W56677   3.788  23.441   9.001 -0.0311 -0.0789  0.2233
    1W        W56678  25.511  10.403   1.662  0.1075 -0.1212  0.4266
    1W        W56679  26.761   7.798   0.668 -0.1920  0.0495  0.0031
    1W        W56680  10.392  14.650   1.164  0.1035  0.1555  0.0615
    1W        W56681   9.667  21.220   0.927  0.1299 -0.4347 -0.3083
    1W        W56682   7.205  23.159   9.201  0.0270 -0.1511  0.0814
    1W        W56683  23.970  29.117   1.540  0.0872 -0.1302  0.1142
    1W        W56684   0.209  23.865   8.484 -0.3248  0.0128  0.1284
    1W        W56685  22.819  16.604   9.000  0.0061  0.1786  0.0102
    1W        W56686  10.678  15.417   7.298  0.5380 -0.2539  0.0219
    1W        W56687  18.377  24.638   3.001 -0.3294  0.3001 -0.1596
    1W        W56688  28.108  17.260   9.221  0.5503  0.0988  0.1020
    1W        W56689  22.518   0.164   0.485 -0.3050 -0.0760  0.1094
    1W        W56690  28.462  13.518   8.265  0.2770 -0.0459 -0.1451
    1W        W56691   9.692  21.897   7.888 -0.1245  0.0667 -0.0973
    1W        W56692   0.390  24.361   8.582 -0.1300 -0.4077  0.0050
    1W        W56693   6.220  28.466   7.267  0.1498 -0.1408 -0.2595
    1W        W56694  23.768  29.631   1.442  0.1115  0.1285 -0.0345
    1W        W56695  12.595   6.049   9.087  0.1449  0.0898  0.2221
    1W        W56696   2.289   4.071   8.977  0.1394  0.1095  0.3951
    1W        W56697  17.424   5.920   0.551 -0.1823  0.0539 -0.2160
    1W        W56698  24.659   0.350   0.635 -0.1336 -0.2017 -0.1339
    1W        W56699  11.208   7.604   2.820  0.3048  0.1444 -0.0086
    1W        W56700   7.608  24.050   7.974  0.1053 -0.1564 -0.0298
    1W        W56701  21.200  18.808   1.954  0.2470 -0.0310  0.2521
    1W        W56702   8.741  19.576   1.994 -0.1038  0.3564 -0.2402
    1W        W56703  21.700  13.845   9.333 -0.1740  0.1002 -0.2299
    1W        W56704  23.927  21.680   7.686  0.2821 -0.1054  0.0967
    1W        W56705   3.695  19.241   1.678 -0.2127 -0.0374 -0.0819
    1W        W56706  14.242  17.865   1.425  0.0618 -0.4217 -0.0303
    1W        W56707  18.072   8.267   6.481  0.2067 -0.0449 -0.0053
    1W        W56708   1.180  11.688   7.307  0.0551 -0.1176  0.2724
    1W        W56709   5.376  25.789   0.405  0.1143 -0.0727 -0.1072
    1W        W56710  10.158  21.099   8.191 -0.0439 -0.0583  0.0771
    1W        W56711   4.611  25.342   6.480  0.1943  0.1272  0.1866
    1W        W56712  17.073  24.541   1.797  0.0660  0.2577  0.1071
    1W        W56713  23.729  15.709   6.851 -0.2534 -0.1845  0.1278
    1W        W56714  24.593   6.850   1.982  0.1368  0.0428 -0.4058
    1W        W56715  16.881  15.480   8.119 -0.0768 -0.1255  0.2303
    1W        W56716  14.493  11.504   0.542 -0.1537  0.0052  0.3999
    1W        W56717  20.833   2.617   7.684 -0.0901 -0.2004 -0.4817
    1W        W56718   5.571   0.874   8.705 -0.1297  0.0973 -0.0567
    1W        W56719   8.833   4.061   8.097  0.0264 -0.2236 -0.1853
    1W        W56720   9.735  29.223   7.619  0.0839 -0.2073 -0.1356
    1W        W56721  15.471  22.683   8.597 -0.2246  0.0974 -0.1331
    1W        W56722   0.585   3.620   8.625 -0.3043  0.3348 -0.1444
    1W        W56723   3.176   5.109   8.046  0.3239  0.0894 -0.1559
    1W        W56724  29.459   9.924   8.519  0.1268 -0.2988 -0.0375
    1W        W56725  28.410  25.621   0.452  0.1284  0.0429 -0.3671
    1W        W56726   3.377  22.383   6.144  0.2972 -0.0213  0.0232
    1W        W56727  27.835   7.553   8.698 -0.2111  0.1010 -0.0343
    1W        W56728  18.984   3.256   9.314 -0.0756 -0.0874  0.2367
    1W        W56729  20.962  20.009   0.955 -0.1662  0.1535 -0.0968
    1W        W56730  29.438  24.303   0.954 -0.0037  0.1475  0.1889
    1W        W56731  13.144   2.059   0.404 -0.1553  0.4151  0.3680
    1W        W56732   8.455  20.536   0.674  0.1643 -0.1835  0.1456
    1W        W56733   9.038   6.711   1.026  0.0475 -0.0126 -0.1677
    1W        W56734  19.739   9.806   1.477  0.1515 -0.0586  0.1481
    1W        W56735  15.238   3.066   8.397 -0.2716 -0.3849 -0.1044
    1W        W56736  12.800  22.649   6.682 -0.0145  0.2490  0.1824
    1W        W56737  24.239  12.415   1.497  0.2958  0.1052 -0.2792
    1W        W56738   9.826   1.671   0.691 -0.1138  0.1837  0.0765
    1W        W56739  24.505  25.227   3.249 -0.0365 -0.0141  0.0205
    1W        W56740   0.679  18.403   0.158 -0.0791 -0.2659  0.1199
    1W        W56741   3.943  26.754   9.223  0.1010  0.0222 -0.0307
    1W        W56742   9.996  13.597   2.623  0.0909  0.0407  0.1581
    1W        W56743  26.135  19.848   6.736  0.1897  0.0549  0.2656
    1W        W56744  13.794   9.433   9.220  0.0542 -0.1133  0.2103
    1W        W56745  29.086  25.576   8.692 -0.3485 -0.0286 -0.1086
    1W        W56746  18.283   7.881   7.744  0.2801 -0.0053  0.2283
    1W        W56747  20.460  16.216   6.352 -0.0215  0.0296 -0.0886
    1W        W56748  14.750  12.523   1.849  0.2048  0.2609 -0.1888
    1W        W56749  28.716  23.426   8.512 -0.1154  0.0836 -0.4275
    1W        W56750   7.030  26.525   0.021  0.0234 -0.2948 -0.1990
    1W        W56751  10.476   9.081   8.801 -0.4925 -0.4029 -0.0880
    1W        W56752  15.945   5.939   1.128 -0.5049 -0.0441  0.0697
    1W        W56753  25.367  13.305   8.935 -0.2985  0.1619  0.1230
    1W        W56754  28.111  25.963   2.905 -0.0447 -0.3045 -0.4024
    1W        W56755  25.192  16.892   2.517  0.1160 -0.1280  0.1311
    1W        W56756  13.546  18.709   7.402 -0.0151  0.3796 -0.2751
    1W        W56757  22.119  15.784   0.413  0.2197 -0.0496 -0.2709
    1W        W56758  10.310  10.354   1.145  0.1506  0.0176  0.0490
    1W        W56759   4.164  16.182   6.498  0.0936  0.2259 -0.0145
    1W        W56760  15.754   9.831   1.128 -0.0451 -0.0399  0.0262
    1W        W56761   0.166  28.193   8.733 -0.0161 -0.0255 -0.1059
    1W        W56762   5.859  14.764   1.959 -0.1538  0.0942  0.1558
    1W        W56763  18.827   8.731   1.785  0.0989 -0.0285 -0.2213
    1W        W56764  19.266   7.709   1.956  0.0433  0.1583 -0.3994
    1W        W56765   8.998  11.525   2.996 -0.1864 -0.0476  0.1513
    1W        W56766   0.190  23.119   1.148  0.4771 -0.1595  0.2659
    1W        W56767  23.247   8.120   1.571 -0.0095  0.0742 -0.0642
    1W        W56768  11.978   1.009   8.434  0.3605  0.1643 -0.1451
    1W        W56769  13.947   0.227   9.271  0.1137 -0.0664 -0.0629
    1W        W56770  14.361  13.738   8.100 -0.0772 -0.1119 -0.0956
    1W        W56771  18.414  19.700   1.302 -0.1049  0.2002 -0.1139
    1W        W56772  11.636   3.867   7.264  0.3477 -0.0099 -0.0727
    1W        W56773   8.691  15.027   0.315  0.0971  0.1913  0.0366
    1W        W56774  16.490  15.185   1.645  0.0936 -0.0182  0.0218
    1W        W56775   6.940  15.305   1.110  0.2726 -0.0695 -0.1497
    1W        W56776  16.760   3.226   6.123  0.0308 -0.2232 -0.0424
    1W        W56777  11.910  11.858   0.043 -0.1342  0.1645  0.2626
    1W        W56778  18.323  27.500   3.652 -0.0241  0.1911 -0.4839
    1W        W56779  13.700  22.677   7.180 -0.0062 -0.1951 -0.2009
    1W        W56780   5.288  18.462   0.040  0.1813  0.3323  0.1059
    1W        W56781  16.124  25.984   3.096 -0.2358  0.0428  0.4177
    1W        W56782   3.586  22.896   6.968 -0.3216 -0.0760  0.1433
    1W        W56783  21.735  27.377   9.426  0.1636  0.0190 -0.2013
    1W        W56784  11.853   5.156   3.181 -0.1059 -0.0592 -0.2931
    1W        W56785  13.975  15.669   9.138  0.0478  0.0068  0.0412
    1W        W56786   8.154   2.933   7.587  0.3379 -0.2135 -0.1765
    1W        W56787   6.913  16.553   9.044  0.0523 -0.1353 -0.0797
    1W        W56788  28.974  21.071   1.196 -0.2159  0.2885  0.1062
    1W        W56789  16.673  25.786   6.900  0.3187 -0.1785  0.0829
    1W        W56790  10.742  24.248   0.188  0.0968 -0.0938 -0.1984
    1W        W56791  11.988  28.583   6.946 -0.0742 -0.0177 -0.2934
    1W        W56792  29.312  22.471   0.311  0.0018 -0.0686  0.2415
    1W        W56793  27.489  17.456   1.850  0.0395  0.1028  0.1215
    1W        W56794   0.791  25.223   7.360  0.2646 -0.2005  0.1874
    1W        W56795  20.270  21.137   3.153 -0.0341  0.2099 -0.1324
    1W        W56796   7.528  21.824   7.561 -0.0280 -0.1186  0.0661
    1W        W56797  17.273  14.175   1.673  0.0239  0.0133  0.1591
    1W        W56798  20.767  29.408   3.188 -0.2952 -0.0150 -0.0516
    1W        W56799  25.010  13.536   9.200  0.3095 -0.1731 -0.0452
    1W        W56800  14.953   8.031   8.717  0.1720  0.2911 -0.0165
    1W        W56801   0.369   3.987   6.779  0.0534  0.2753 -0.2176
    1W        W56802  28.132  27.582   8.194 -0.2390  0.1680 -0.2177
    1W        W56803   3.843   4.831   2.383 -0.1304 -0.5088  0.3171
    1W        W56804   9.806  24.486   6.679 -0.3957  0.1791 -0.1060
    1W        W56805  13.946   2.780   2.027  0.1063  0.3356  0.1748
    1W        W56806   5.270   8.521   0.233 -0.2170 -0.2392  0.2178
    1W        W56807   9.519  23.692   6.086 -0.2234  0.3730 -0.0992
    1W        W56808   3.859   0.214   6.905 -0.3966 -0.1119  0.1785
    1W        W56809   1.558  14.733   5.776 -0.1427 -0.0870  0.2022
    1W        W56810  15.694  14.514   7.456  0.0590 -0.1769  0.0997
    1W        W56811  11.475  20.857   1.759 -0.5885 -0.0279 -0.2251
    1W        W56812  26.612   1.475   2.769  0.0206 -0.2417  0.1827
    1W        W56813  16.198   5.270   2.298 -0.3331 -0.0262 -0.0805
    1W        W56814  15.246   9.737   0.927 -0.0397  0.1460 -0.0008
    1W        W56815  19.756  25.155   8.486 -0.1198 -0.2118 -0.0917
    1W        W56816  27.938  19.288   6.814  0.4134 -0.1360  0.1170
    1W        W56817  13.652  29.532   0.782 -0.0045 -0.0807 -0.5223
    1W        W56818  12.356  18.530   0.217 -0.1777 -0.1894  0.2832
    1W        W56819  19.731  28.920   6.624 -0.1352  0.0799  0.0408
    1W        W56820  25.475   8.006   8.008 -0.0662 -0.2013  0.1003
    1W        W56821   9.212  22.688   0.250  0.1253 -0.2120  0.0411
    1W        W56822   2.813  26.521   9.086 -0.0331  0.0572 -0.2351
    1W        W56823  17.227  14.519   0.262 -0.0087  0.0957 -0.1943
    1W        W56824   0.935  28.265   1.780 -0.0440  0.0925  0.3227
    1W        W56825  18.071   0.328   1.775 -0.2126  0.1263  0.0104
    1W        W56826   3.292  11.244   7.287 -0.1623 -0.0571  0.1432
    1W        W56827  23.003   0.954   1.290  0.2028 -0.5295  0.1057
    1W        W56828  24.328  28.534   7.547 -0.0305 -0.0396 -0.3467
    1W        W56829  20.858   1.303   0.467 -0.2467  0.3344  0.3869
    1W        W56830  26.272   9.931   1.362 -0.0854  0.0551  0.0334
    1W        W56831   2.555  18.479   8.916 -0.0474 -0.1391  0.1251
    1W        W56832  21.444   4.824   2.043  0.1767 -0.1394 -0.0266
    1W        W56833   6.858   4.428   0.684  0.0309  0.3159  0.2718
    1W        W56834   2.383  24.205   0.069 -0.0451 -0.0236  0.0988
    1W        W56835   9.857  17.899   0.961  0.1768 -0.2331  0.0637
    1W        W56836   6.261   1.158   2.739 -0.2010 -0.2002  0.0670
    1W        W56837   0.378  28.972   1.484 -0.1261 -0.1182 -0.0647
    1W        W56838  28.865  22.086   7.918 -0.0007 -0.0986 -0.1980
    1W        W56839   6.497  12.522   8.535  0.1299  0.3026  0.1679
    1W        W56840  29.742  27.985   2.967 -0.3838  0.2426 -0.0712
    1W        W56841  23.013  20.460   1.870 -0.1322 -0.2020 -0.1079
    1W        W56842   0.314   2.981   1.662 -0.1931 -0.0861 -0.2474
    1W        W56843  20.948   6.802   8.615 -0.0850  0.0363  0.0589
    1W        W56844  17.604   2.764   9.356 -0.0785  0.0185 -0.1930
    1W        W56845   6.056  26.388   1.905  0.0114  0.4716  0.0082
    1W        W56846  21.745  10.092   1.803  0.0893  0.2074 -0.1150
    1W        W56847  11.568  25.297   6.582  0.2803  0.1937 -0.2939
    1W        W56848  27.900  22.789   6.013 -0.0518 -0.2177 -0.0750
    1W        W56849  16.763   1.875   0.811 -0.1098  0.1531  0.1109
    1W        W56850   8.567  16.774   1.687 -0.0888  0.1984 -0.0290
    1W        W56851   4.858  16.204   8.876 -0.2024  0.0093 -0.0244
    1W        W56852   7.249   3.743   8.352 -0.1097 -0.1138 -0.1752
    1W        W56853  15.204  17.969   7.171 -0.0216 -0.2818  0.1189
    1W        W56854  26.218   7.605   5.875  0.0232  0.1001 -0.1834
    1W        W56855   4.989  19.746   1.808 -0.0415  0.2514 -0.0560
    1W        W56856   7.125  27.014   0.196 -0.0444 -0.2910  0.1692
    1W        W56857  28.186  22.180   9.026  0.3647  0.0066  0.0310
    1W        W56858  21.935  18.962   1.580 -0.0388 -0.0046 -0.1671
    1W        W56859  15.550   6.214   2.985  0.1245  0.0760  0.1169
    1W        W56860  17.496   4.312   2.904  0.3264 -0.0324  0.1103
    1W        W56861  27.092  27.939   7.977  0.1650  0.1966  0.1091
    1W        W56862  19.959  27.335   2.659  0.2751 -0.0328 -0.0816
    1W        W56863  23.200  12.144   9.456  0.0760 -0.0458 -0.1818
    1W        W56864  27.523  18.469   1.485 -0.2374  0.1119 -0.3032
    1W        W56865   7.727  10.176   7.615 -0.1576  0.1455 -0.0472
    1W        W56866   5.813  26.636   6.422  0.0348 -0.2241  0.0227
    1W        W56867   9.821  10.527   1.325  0.0826 -0.0279 -0.0387
    1W        W56868   3.286   3.216   2.407 -0.1822 -0.1177  0.0858
    1W        W56869  26.413  26.960   9.218  0.2137 -0.0325 -0.2305
    1W        W56870  14.706   7.512   0.846  0.0616  0.2567 -0.1329
    1W        W56871  29.548  29.393   6.646  0.0632  0.1017  0.2529
    1W        W56872  26.882  25.678   7.520 -0.0768  0.0409 -0.3532
    1W        W56873  12.778  20.391   6.354 -0.1302 -0.1864  0.3809
    1W        W56874  15.297   0.766   1.365 -0.0099  0.0370 -0.1483
    1W        W56875   6.747   0.457   1.799  0.0267  0.0072  0.2378
    1W        W56876  26.967   1.030   6.945 -0.1278  0.0835  0.0181
    1W        W56877  26.184  19.594   8.432 -0.0885 -0.0508  0.0480
    1W        W56878   5.179   1.992   9.041 -0.3632 -0.0390  0.0294
    1W        W56879  15.957  17.343   8.267 -0.1756  0.1881  0.1176
    1W        W56880   5.337  26.315   6.361  0.1824 -0.0922  0.1507
    1W        W56881   7.469   9.439   8.069  0.2414  0.0056  0.0062
    1W        W56882  29.311  22.433   8.010 -0.2352  0.0894  0.1523
    1W        W56883  18.166  21.189   7.662  0.1000 -0.0170 -0.2490
    1W        W56884  20.227  23.618   7.546  0.3283 -0.0615  0.0691
    1W        W56885  26.777   7.160   2.405 -0.2716  0.0688  0.0492
    1W        W56886  24.586   3.536   9.029  0.0943  0.0418 -0.0621
    1W        W56887  20.631   1.352   1.475 -0.0279 -0.1033 -0.2738
    1W        W56888   1.786  19.147   0.422  0.1488 -0.0800 -0.0203
    1W        W56889   7.717  19.642   8.730  0.0610 -0.2274 -0.1089
    1W        W56890  20.811  23.888   2.527  0.1376 -0.1686 -0.0965
    1W        W56891  24.236  21.351   2.011 -0.2958  0.1223  0.2220
    1W        W56892  14.771  19.031   9.222 -0.3726 -0.2116  0.4682
    1W        W56893  13.670  15.442   2.025  0.0102 -0.2583 -0.0768
    1W        W56894  23.626  19.073   7.701  0.0341 -0.4227  0.1057
    1W        W56895   6.412   1.615   9.320 -0.0843 -0.2276  0.2406
    1W        W56896   8.798  21.961   2.115  0.1217  0.0382 -0.0708
    1W        W56897  29.365   8.190   7.579 -0.0648  0.1888 -0.1022
    1W        W56898  24.655  28.604   1.801  0.2556 -0.0148 -0.0968
    1W        W56899  15.570   9.650   6.634 -0.0244 -0.1242  0.1799
    1W        W56900   1.148  10.555   6.180  0.1127  0.1563 -0.0631
    1W        W56901   0.715  23.201   5.969 -0.1816  0.1609 -0.0537
    1W        W56902  27.084   2.757   8.363  0.5446 -0.0715 -0.1897
    1W        W56903  18.016   4.170   7.536 -0.0174  0.0689 -0.1077
    1W        W56904  13.812   6.792   8.097 -0.0996 -0.1226 -0.2641
    1W        W56905  17.476  12.807   7.872 -0.1359 -0.1661 -0.0215
    1W        W56906  19.874   3.445   7.129 -0.3345 -0.1453  0.0018
    1W        W56907  13.410  23.171   8.534  0.2597  0.0838 -0.1024
    1W        W56908  12.077   5.161   8.353  0.1624  0.1668 -0.0570
    1W        W56909  29.811  29.058   6.990 -0.1447 -0.4133 -0.3048
    1W        W56910  27.026   3.378   2.684 -0.2456  0.1224 -0.2521
    1W        W56911  17.470  22.498   7.489 -0.1992  0.4596  0.1620
    1W        W56912  22.386   1.327   7.947 -0.1637 -0.1457 -0.1475
    1W        W56913  14.103  28.278   1.467  0.2535  0.0381  0.1152
    1W        W56914   9.895  17.164   1.691 -0.0512  0.2076  0.0856
    1W        W56915  13.886   5.808   2.151  0.0741  0.0315  0.2650
    1W        W56916  21.043  10.865   7.637  0.1560  0.0540 -0.3838
    1W        W56917  17.571  22.182   0.107  0.0732 -0.2024  0.0722
    1W        W56918  28.923  21.289   6.535  0.0621  0.0684  0.1639
    1W        W56919   6.047  20.976   0.212  0.1063 -0.2140  0.1165
    1W        W56920   0.485  22.059   9.316 -0.0959  0.3401 -0.2750
    1W        W56921  23.858   4.168   9.427 -0.0139  0.0711  0.1603
    1W        W56922  19.010   9.418   8.176  0.0198 -0.1413 -0.4431
    1W        W56923  12.824  24.821   1.749 -0.0336 -0.1140  0.2343
    1W        W56924  22.558   9.501   8.501 -0.3175 -0.1918 -0.0323
    1W        W56925  29.291  28.227   7.406 -0.0581 -0.1195 -0.0300
    1W        W56926   9.159  22.775   7.157  0.0690 -0.2382 -0.0876
    1W        W56927   4.006  20.978   0.589  0.0802 -0.0369  0.0232
    1W        W56928  18.707   0.484   0.085  0.0006 -0.1157 -0.1924
    1W        W56929   2.215  20.513   6.997  0.1206  0.0359  0.1033
    1W        W56930  26.048   4.660   8.161 -0.1739 -0.2978 -0.2449
    1W        W56931  25.530  14.706   8.616  0.1232 -0.0726 -0.1094
    1W        W56932   8.141  23.375   8.078  0.3313 -0.1089  0.0193
    1W        W56933  22.893   0.088   7.763 -0.2360 -0.2184  0.1317
    1W        W56934  15.507  24.833   0.083 -0.0654  0.2652 -0.0334
    1W        W56935  18.318   5.568   7.050 -0.0350 -0.2562  0.1335
    1W        W56936  21.684  23.697   2.883 -0.1100 -0.0224 -0.1184
    1W        W56937  18.967  19.328   2.592 -0.3107  0.1110 -0.1322
    1W        W56938  25.586   9.342   9.152 -0.5081 -0.1602  0.0915
    1W        W56939   1.169   7.960   2.452 -0.1044  0.1861 -0.2192
    1W        W56940   4.122   3.274   7.812 -0.0349  0.2691 -0.1801
    1W        W56941  25.456  27.328   1.524  0.0211  0.1411  0.2739
    1W        W56942  18.601   6.635   0.508  0.1161  0.0268  0.2518
    1W        W56943  29.450  12.166   0.093 -0.2122  0.1832 -0.1161
    1W        W56944  11.498   9.211   0.372 -0.2844 -0.1369 -0.0475
    1W        W56945  14.739  19.694   7.748 -0.0141 -0.1400  0.0546
    1W        W56946   6.419  15.481   8.737 -0.0381 -0.0248  0.0091
    1W        W56947  12.617  13.277   1.948  0.0780  0.0117  0.1979
    1W        W56948  22.829  11.283   2.357  0.3083 -0.3914 -0.1381
    1W        W56949  28.453   5.473   8.146 -0.3207  0.0966  0.0970
    1W        W56950  13.360   5.450   3.282 -0.0250  0.0093  0.1534
    1W        W56951   0.955  16.380   6.513 -0.1402 -0.1046  0.2493
    1W        W56952  18.701   5.254   1.089 -0.1144 -0.5451  0.0000
    1W        W56953  26.159  25.627   0.030  0.0810  0.1347  0.0356
    1W        W56954  12.505  22.302   6.412  0.3695  0.5419 -0.1286
    1W        W56955   2.899   3.904   6.856  0.3853  0.0523  0.4586
    1W        W56956  12.107   2.646   2.489  0.1727 -0.0612  0.0838
    1W        W56957   2.436   9.133   1.183 -0.0392 -0.0399  0.0061
    1W        W56958  25.310  17.298   0.266 -0.1866 -0.2269 -0.2572
    1W        W56959  17.541   8.141   2.168  0.0582 -0.0673 -0.2285
    1W        W56960  13.743  16.613   2.059  0.0131 -0.0736 -0.0626
    1W        W56961   0.289  19.053   2.875  0.3263 -0.3026  0.3693
    1W        W56962   2.794  28.944   0.627 -0.1151  0.1910  0.1207
    1W        W56963  10.302  20.728   7.162 -0.1893 -0.2931 -0.4668
    1W        W56964   4.204   7.678   8.712 -0.0694  0.2206 -0.1238
    1W        W56965   8.440   8.451   8.004  0.0020 -0.1632 -0.0310
    1W        W56966  19.235  26.305   2.008 -0.0822 -0.0952  0.0267
    1W        W56967  18.458  28.792   1.136 -0.0469  0.0525  0.0406
    1W        W56968   1.372  29.154   7.452 -0.0498 -0.1334  0.0703
    1W        W56969   8.766   7.423   7.210  0.1684  0.2903 -0.0746
    1W        W56970   4.939  26.476   6.884  0.0134  0.4146 -0.0820
    1W        W56971  13.438  22.283   1.467 -0.2698  0.0555 -0.1924
    1W        W56972  13.554  14.057   1.270  0.0292  0.4868  0.2571
    1W        W56973  27.180  28.479   8.199  0.0509  0.0691 -0.2429
    1W        W56974   6.564  17.686   1.537  0.0389  0.1853 -0.2441
    1W        W56975   1.972   5.391   0.461 -0.0953 -0.0939  0.0514
    1W        W56976   1.277   4.056   3.003  0.2205  0.0334 -0.0935
    1W        W56977  10.468  26.907   7.495 -0.0263 -0.0741 -0.1741
    1W        W56978  11.496  22.643   6.889  0.1155  0.0548 -0.3703
    1W        W56979   8.873  15.788   7.364  0.0789 -0.1117  0.1094
    1W        W56980   2.627  20.293   2.713 -0.2831  0.0975 -0.1931
    1W        W56981  28.806   0.731   7.935  0.2066  0.1658 -0.1290
    1W        W56982   1.297   2.654   1.569  0.0140  0.2485  0.2364
    1W        W56983   5.791   3.334   8.307  0.3244 -0.2101 -0.0684
    1W        W56984   3.349  19.958   1.296  0.0917  0.2988 -0.2064
    1W        W56985   7.993  22.685   9.340 -0.1110 -0.2064  0.0334
    1W        W56986  22.098   9.195   2.153 -0.0311  0.0832 -0.1580
    1W        W56987  29.652   3.045   8.462 -0.0952  0.0259  0.1395
    1W        W56988   3.835  13.151   5.933 -0.1551  0.0403  0.0376
    1W        W56989  18.376  21.351   8.660  0.2610 -0.4075 -0.0231
    1W        W56990  15.794  21.569   6.923 -0.0577 -0.0634 -0.2731
    1W        W56991  22.383  13.947   1.308  0.1096 -0.1099  0.0516
    1W        W56992  26.850  25.102   2.479 -0.0352 -0.2520 -0.1610
    1W        W56993  13.958   9.240   0.205 -0.0662 -0.3316  0.0799
    1W        W56994  16.510  18.211   1.078  0.1717 -0.3796 -0.2437
    1W        W56995  29.360  10.000   9.257  0.1240  0.1906 -0.0823
    1W        W56996  29.201   4.439   1.970 -0.0135  0.2696 -0.0115
    1W        W56997   0.262  21.776   8.883  0.1595 -0.0791 -0.1337
    1W        W56998  24.368  15.746   0.119  0.3743 -0.1441  0.3000
    1W        W56999  18.116  12.680   0.088 -0.0920  0.3059  0.0414
    1W        W57000  12.446   6.671   0.727 -0.1856  0.1774  0.0059
    1W        W57001   2.789  11.722   0.281  0.1747  0.0154 -0.1209
    1W        W57002   0.215  17.697   7.145  0.0393  0.2841 -0.1167
    1W        W57003  23.442  16.919   7.459  0.0894  0.2306  0.0195
    1W        W57004  21.593  15.328   9.320  0.0304 -0.0001 -0.1731
    1W        W57005  12.669   9.062   0.041 -0.0349  0.0410 -0.4654
    1W        W57006  29.086  24.235   0.529  0.3388 -0.1099  0.0880
    1W        W57007  22.688  20.347   6.928  0.2292  0.1118  0.1523
    1W        W57008  27.117  14.392   1.113  0.0012  0.0049 -0.0306
    1W        W57009  15.478  20.752   7.195  0.0323 -0.0179  0.1894
    1W        W57010  24.665   4.268   0.613 -0.1834  0.1562 -0.0946
    1W        W57011  11.646  27.863   7.495 -0.1135 -0.1679  0.0650
    1W        W57012   0.424  27.337   7.662 -0.1209  0.1654 -0.1973
    1W        W57013  15.217   1.328   2.113  0.0294  0.0768 -0.0762
    1W        W57014   0.019  12.824   8.385 -0.1291 -0.0724  0.1192
    1W        W57015   3.213  24.117   9.427  0.1210  0.0940 -0.1603
    1W        W57016  13.013   0.399   7.972 -0.1413  0.3268  0.2794
    1W        W57017  25.088  11.788   7.046 -0.0744 -0.0518  0.2898
    1W        W57018   0.495  24.818   1.407  0.0950 -0.0633  0.0381
    1W        W57019  12.020  12.330   7.024 -0.4503  0.0130  0.4538
    1W        W57020  28.021   1.140   6.354  0.1807  0.0669 -0.0674
    1W        W57021  23.593  19.464   7.145  0.0693  0.0443 -0.2569
    1W        W57022   3.898  22.153   7.624  0.1551  0.3051 -0.0578
    1W        W57023  20.282   3.550   6.297 -0.0325 -0.0809  0.0175
    1W        W57024  26.697  13.792   7.987 -0.1605  0.0870 -0.3470
    1W        W57025  25.259  20.533   1.511  0.1671  0.0197 -0.2353
    1W        W57026  19.782   9.644   7.559  0.0165  0.2425  0.1270
    1W        W57027  25.739  12.457   7.328 -0.0102  0.3155 -0.0973
    1W        W57028  12.279   9.252   0.387 -0.2070 -0.1954 -0.1064
    1W        W57029  26.488   8.507   6.435 -0.2140  0.1520  0.3352
    1W        W57030   0.721   9.631   2.412 -0.0356  0.1780 -0.1024
    1W        W57031   2.284  22.825   7.957 -0.0783 -0.0517 -0.1560
    1W        W57032   6.722  28.671   1.594 -0.0199  0.1397  0.6175
    1W        W57033  24.218  10.072   8.086 -0.1471  0.1846  0.1514
    1W        W57034  15.358  21.737   7.888  0.0984  0.0704  0.1509
    1W        W57035   1.615  22.696   2.832  0.0683  0.0971 -0.0895
    1W        W57036   5.370  14.419   2.308  0.2713  0.1648 -0.0050
    1W        W57037  26.261  23.852   0.456 -0.0952 -0.0772 -0.0320
    1W        W57038  12.216  22.654   8.737  0.2382  0.1541 -0.1062
    1W        W57039   1.797  11.050   6.761 -0.1391 -0.0947  0.1524
    1W        W57040   1.309  20.606   5.962  0.2221  0.1031 -0.0297
    1W        W57041   7.131   7.909   7.385 -0.0459  0.3566 -0.1780
    1W        W57042   3.822   3.952   2.072  0.0659 -0.1502  0.1269
    1W        W57043  26.331  26.134   6.702  0.0539  0.2301 -0.2014
    1W        W57044  10.215  11.748   7.775  0.0501 -0.2275  0.2306
    1W        W57045   8.269  26.126   1.550  0.0306  0.1452  0.1822
    1W        W57046  15.151  23.803   1.493  0.0917  0.1093 -0.1378
    1W        W57047  16.782  27.753   2.153 -0.1631  0.1037 -0.1609
    1W        W57048   8.007  20.858   0.278  0.0337  0.3272  0.0596
    1W        W57049  11.997   4.498   9.061 -0.0311 -0.1473 -0.1434
    1W        W57050   2.838   4.517   6.738 -0.1569 -0.2223 -0.2168
    1W        W57051   4.846  22.295   1.873 -0.0847  0.2499 -0.2235
    1W        W57052  23.078  28.174   8.817  0.3465  0.2733 -0.2839
    1W        W57053  13.994  24.200   1.679 -0.0940  0.2319  0.3850
    1W        W57054   2.181  23.061   0.741  0.0243  0.2145  0.0487
    1W        W57055  10.225   3.604   8.189  0.1216  0.1200  0.0359
    1W        W57056  20.054  11.373   1.633  0.1135 -0.0727 -0.0107
    1W        W57057  29.163  19.300   8.918 -0.0648 -0.1266  0.1987
    1W        W57058  12.500  13.833   7.489  0.0086  0.1050  0.1202
    1W        W57059   4.782  12.174   7.912  0.1801 -0.2644  0.1192
    1W        W57060  26.401  11.316   6.303 -0.3713 -0.3440 -0.0923
    1W        W57061  23.870   2.702   8.421  0.1227 -0.1175 -0.2735
    1W        W57062  12.981   0.269   1.162 -0.1839 -0.3615  0.1980
    1W        W57063   4.013  29.807   2.240 -0.1214 -0.3668  0.4712
    1W        W57064  11.677  19.301   0.350  0.0056  0.2438 -0.1224
    1W        W57065   6.947  29.223   0.328  0.1816  0.1601 -0.2366
    1W        W57066  15.079  19.478   2.424  0.0218  0.0879 -0.1082
    1W        W57067  20.625   6.866   2.293  0.1151  0.1971 -0.0470
    1W        W57068  13.379  19.740   9.097 -0.0161  0.0497 -0.1310
    1W        W57069  24.509   1.093   0.202  0.0781  0.0216  0.2292
    1W        W57070  20.145   4.626   2.530  0.3403 -0.0555  0.0372
    1W        W57071  25.882  18.338   6.963  0.0709 -0.1234  0.1347
    1W        W57072  29.160  14.011   1.433 -0.0475 -0.1649  0.1736
    1W        W57073  12.503   2.719   0.209 -0.0794 -0.1661  0.1043
    1W        W57074  10.477  22.795   8.556  0.0850  0.1751  0.2666
    1W        W57075   2.017  18.449   1.871 -0.1760  0.0959  0.1034
    1W        W57076  14.199  25.869   7.651 -0.1433 -0.2238 -0.1078
    1W        W57077   9.581  24.924   9.152 -0.0556  0.3630 -0.1577
    1W        W57078   1.049  25.153   1.063 -0.0130  0.2097  0.2096
    1W        W57079  12.272  11.148   1.061  0.1203 -0.0014  0.0770
    1W        W57080  18.430  15.195   2.357  0.1069 -0.1293 -0.3548
    1W        W57081   8.854  10.893   1.279  0.1665 -0.0791  0.3001
    1W        W57082   2.503  14.754   6.568  0.4703 -0.2481  0.0809
    1W        W57083  20.967   9.773   1.681  0.0041  0.0990  0.2975
    1W        W57084  20.276   1.436   1.106  0.1713 -0.0216 -0.0580
    1W        W57085  16.023  15.180   8.071 -0.0934  0.1289 -0.2335
    1W        W57086   0.450  12.026   0.097 -0.1602 -0.1707  0.0561
    1W        W57087  13.206   0.040   8.574  0.2792 -0.1176 -0.3496
    1W        W57088  15.735  28.722   2.390 -0.0278  0.3194 -0.1304
    1W        W57089  23.962  24.201   1.850  0.0864  0.1228 -0.1921
    1W        W57090   7.223  25.458   6.670 -0.3902  0.1649 -0.0374
    1W        W57091  19.049   2.796   1.528  0.2426 -0.0862 -0.0708
    1W        W57092  28.712  25.169   8.047 -0.1176 -0.1142  0.0277
    1W        W57093  16.637  24.888   8.496  0.0098 -0.1081 -0.5128
    1W        W57094   2.340   4.171   8.077 -0.3496  0.1398 -0.1003
    1W        W57095  18.204   1.769   2.919  0.3974 -0.0824  0.0634
    1W        W57096  26.827   8.702   8.317  0.0636 -0.0650 -0.0220
    1W        W57097  10.229  18.635   2.251  0.1476  0.0743 -0.0303
    1W        W57098   1.954  26.224   8.708 -0.0305 -0.0075  0.0660
    1W        W57099  23.642  23.941   3.203 -0.0382  0.1897  0.2022
    1W        W57100  12.181   8.215   1.311 -0.1848 -0.2311 -0.1093
    1W        W57101  21.575  17.208   9.411 -0.0059 -0.1016 -0.0912
    1W        W57102   0.305   8.444   9.453  0.0485  0.2179 -0.1059
    1W        W57103   7.678  10.976   8.949  0.0949 -0.2923 -0.2322
    1W        W57104  29.557   7.099   1.304  0.0696  0.2532  0.2706
    1W        W57105   2.179   4.792   0.619 -0.0394  0.2173 -0.0582
    1W        W57106  29.814  10.530   1.626  0.0783 -0.0795  0.1898
    1W        W57107  19.873  10.121   7.542  0.1591 -0.0475  0.0469
    1W        W57108  11.617   9.587   0.810 -0.2590  0.0781 -0.0889
    1W        W57109  20.928   3.598   2.346  0.1102  0.1379  0.0795
    1W        W57110   1.676   3.655   0.691 -0.0028  0.1014 -0.1369
    1W        W57111   6.827  20.735   7.297 -0.2122  0.0600 -0.1090
    1W        W57112   0.773  13.784   8.062 -0.0958  0.0001  0.1355
    1W        W57113  21.167  21.213   8.913  0.0102 -0.0218 -0.0733
    1W        W57114  26.360   2.145   3.338 -0.0807 -0.1541 -0.0796
    1W        W57115   0.760   8.021   0.287 -0.3451  0.0403  0.0239
    1W        W57116  20.202   4.001   1.129 -0.1056 -0.0056 -0.2243
    1W        W57117   7.409  21.273   0.891  0.0468 -0.1562  0.2037
    1W        W57118   8.537   4.563   0.751 -0.2063  0.1772 -0.0507
    1W        W57119   1.017   1.200   6.949  0.0448  0.1294  0.0723
    1W        W57120  14.943  27.286   9.311  0.0690 -0.0448 -0.1920
    1W        W57121  26.882   4.285   2.591 -0.1432  0.1064  0.2057
    1W        W57122   8.591  25.931   0.767  0.2838  0.0252  0.1440
    1W        W57123   0.131  24.770   0.394  0.1224  0.3652  0.0362
    1W        W57124  16.653   9.413   1.123 -0.0896  0.4096 -0.1851
    1W        W57125  28.254   9.530   8.918  0.1133  0.3336  0.0782
    1W        W57126  14.124  21.061   1.562  0.1535 -0.2442 -0.0910
    1W        W57127  19.650  29.475   8.041  0.0923 -0.0147 -0.1883
    1W        W57128  23.520   0.456   1.792  0.0456 -0.0581 -0.0908
    1W        W57129  29.615   5.130   9.263  0.0348  0.1095  0.1887
    1W        W57130  19.103   5.850   2.253 -0.0180  0.0220 -0.0069
    1W        W57131   5.946  24.913   6.617  0.0119  0.5004  0.0429
    1W        W57132  28.500   5.548   1.934  0.0495 -0.1970  0.0946
    1W        W57133   7.225  10.139   1.021  0.1895  0.0253 -0.4282
    1W        W57134  25.848  15.750   8.475  0.0255 -0.1816 -0.0071
    1W        W57135  21.938  26.125   8.469 -0.1533 -0.0334  0.1345
    1W        W57136  24.005   9.379   2.010 -0.1782 -0.2783 -0.3842
    1W        W57137   0.867  21.214   8.027 -0.0798  0.0267  0.0627
    1W        W57138  20.366  19.913   7.394  0.2697  0.2179 -0.1823
    1W        W57139  11.103  29.498   8.454  0.0299 -0.0108 -0.2336
    1W        W57140  16.998   3.487   0.960 -0.2254  0.2194  0.1649
    1W        W57141  13.029  18.047   0.472 -0.2765 -0.0390 -0.2212
    1W        W57142  17.002   7.787   8.004 -0.0680  0.2313  0.0793
    1W        W57143  17.888   2.376   8.329  0.0604  0.2469 -0.3465
    1W        W57144  11.287  11.031   9.361 -0.3132  0.1084 -0.1695
    1W        W57145   6.149  16.760   7.479  0.1948 -0.0251  0.1010
    1W        W57146  10.505  19.326   0.784  0.0987 -0.2893 -0.2166
    1W        W57147  24.595   0.112   7.713  0.1408 -0.0058  0.1282
    1W        W57148   5.889  16.241   6.470  0.0132 -0.1614 -0.2503
    1W        W57149  14.396  13.852   0.916 -0.2295 -0.2279 -0.2188
    1W        W57150  19.129   7.519   7.639  0.0442 -0.2212  0.0643
    1W        W57151  20.843  11.034   8.836 -0.2587  0.1521  0.1620
    1W        W57152  29.685   2.658   0.401  0.1903 -0.1153  0.1023
    1W        W57153  16.571   1.201   0.111 -0.2916  0.2985  0.0481
    1W        W57154   0.126   5.917   7.489 -0.3805  0.0512 -0.0546
    1W        W57155  28.037  21.802   0.510  0.0355 -0.1017 -0.0718
    1W        W57156  16.733   8.381   9.426 -0.1619  0.1854  0.2345
    1W        W57157  12.258  16.833   9.292 -0.0063  0.0062 -0.1222
    1W        W57158  17.610  26.453   1.150  0.0042  0.3103 -0.0013
    1W        W57159  19.178  29.728   8.463 -0.2558  0.0667  0.3722
    1W        W57160  12.985  14.365   7.187  0.1947 -0.2294  0.1504
    1W        W57161  10.136  14.181   2.000  0.0816 -0.1315  0.0671
    1W        W57162  27.851   0.542   0.616 -0.1170 -0.0172  0.1039
    1W        W57163   9.347  17.466   8.503  0.5235  0.0848  0.1582
    1W        W57164   7.703  12.911   8.081 -0.0850  0.0804  0.1151
    1W        W57165   3.489  11.177   6.851  0.2279  0.0192  0.2057
    1W        W57166   6.918  14.658   2.114  0.1105  0.0442  0.0987
    1W        W57167  25.040  25.940   0.235  0.3464  0.5174  0.2580
    1W        W57168   1.213  29.066   8.537  0.1102 -0.0427 -0.2583
    1W        W57169  11.784  11.624   1.300  0.1883 -0.6354 -0.1313
    1W        W57170  16.500  24.418   8.622  0.0153  0.3145  0.2598
    1W        W57171  24.598  23.136   1.722 -0.0230  0.2389 -0.2886
    1W        W57172  27.830  18.323   2.223  0.2602 -0.3786 -0.1523
    1W        W57173   8.946  25.153   1.645  0.0007  0.1284  0.0085
    1W        W57174  12.237  23.481   5.746  0.0766 -0.0441  0.0063
    1W        W57175   6.960  13.043   0.175 -0.1181  0.2608  0.0252
    1W        W57176  22.558  29.101   1.969  0.3324 -0.2335 -0.1468
    1W        W57177  11.421  23.336   1.546 -0.4958 -0.0682 -0.1778
    1W        W57178  28.702  25.249   2.064  0.0603 -0.1701  0.2560
    1W        W57179   1.627  23.439   6.227 -0.0569  0.2004  0.1057
    1W        W57180  10.251   4.368   7.743  0.0750 -0.0010 -0.0525
    1W        W57181   8.118  18.036   1.168  0.1450  0.2004 -0.0983
    1W        W57182  14.167  25.562   8.449 -0.0668 -0.1382  0.1303
    1W        W57183  28.782  29.531   1.257  0.0510  0.2759 -0.1964
    1W        W57184  20.262  23.751   0.029 -0.1048 -0.1704 -0.0959
    1W        W57185   2.252  21.320   1.746  0.1107  0.2143  0.0599
    1W        W57186  16.663  13.838   9.289  0.0728 -0.2500 -0.0347
    1W        W57187  19.284  22.610   2.628 -0.0161 -0.1535  0.2216
    1W        W57188  28.304  28.123   0.231  0.2546 -0.2039 -0.2937
    1W        W57189   7.187  26.523   6.351 -0.0801  0.1497  0.0429
    1W        W57190  12.823   3.328   8.596  0.0622 -0.1852 -0.2882
    1W        W57191  12.944  21.908   9.397  0.0922 -0.0520 -0.2169
    1W        W57192   4.580  29.370   0.807  0.0267  0.2346 -0.0099
    1W        W57193  16.493   7.524   1.730 -0.0208  0.0510 -0.0823
    1W        W57194  11.875  25.629   0.336  0.2477 -0.1024  0.0058
    1W        W57195  15.693   5.296   2.377 -0.3176 -0.2558 -0.3117
    1W        W57196  18.813  25.932   8.399 -0.2380  0.0626  0.0803
    1W        W57197  18.761   4.752   1.289  0.2424 -0.0964  0.0020
    1W        W57198  24.117  25.606   0.655  0.1293 -0.0416 -0.2056
    1W        W57199   3.398  27.539   8.250  0.1190  0.0435 -0.4188
    1W        W57200   4.423  18.077   6.991  0.0194  0.1210 -0.1885
    1W        W57201  26.037   7.813   1.042  0.0993 -0.1896  0.0213
    1W        W57202  26.113  21.854   6.317 -0.0315 -0.2314  0.1372
    1W        W57203   3.341  15.172   8.527  0.0652 -0.1587 -0.1677
    1W        W57204  26.142   2.921   8.032  0.2342  0.1311 -0.1344
    1W        W57205  13.353  29.185   0.681  0.1547 -0.0707 -0.3169
    1W        W57206  20.461   6.234   6.586 -0.1214 -0.1622  0.1120
    1W        W57207   5.694  18.904   8.355  0.3009 -0.0889  0.0366
    1W        W57208  28.483   9.827   6.676 -0.2226 -0.1813 -0.0320
    1W        W57209  29.197  20.203   2.088  0.1401  0.0639 -0.0380
    1W        W57210  10.882  25.879   0.140 -0.1466  0.1595  0.1864
    1W        W57211   1.502  12.333   8.455  0.0018 -0.1489  0.2848
    1W        W57212   0.001  28.711   8.743 -0.0230 -0.4004 -0.1184
    1W        W57213  15.890  26.329   7.298  0.2518  0.0041  0.2457
    1W        W57214  25.948  17.190   6.344  0.1203 -0.1427  0.2956
    1W        W57215  16.757  27.070   8.281 -0.1897 -0.3177 -0.2640
    1W        W57216   0.972  26.516   1.688 -0.2391  0.1979  0.0452
    1W        W57217  10.339  23.764   2.451 -0.3738  0.0799 -0.2180
    1W        W57218  14.282  26.465   6.904  0.2183 -0.1415 -0.3897
    1W        W57219   5.128   3.667   8.148  0.0734  0.1192 -0.1089
    1W        W57220  19.235   9.639   1.819  0.4974  0.0431 -0.0990
    1W        W57221  27.217  27.632   6.034  0.0758 -0.0692  0.1237
    1W        W57222  15.348  27.252   0.167 -0.1311 -0.0303  0.1412
    1W        W57223  21.366  22.749   7.968 -0.0186  0.0803 -0.0996
    1W        W57224   8.028   5.430   0.012 -0.1922 -0.0255 -0.1481
    1W        W57225  18.621   2.302   7.147  0.3423 -0.3699  0.0330
    1W        W57226  21.792   3.753   7.850 -0.2765  0.1428 -0.3124
    1W        W57227  26.595  22.495   2.109  0.1332  0.1985  0.0796
    1W        W57228   9.663  16.761   0.011  0.1877  0.2048 -0.1631
    1W        W57229  11.371   8.470   7.682  0.0750 -0.0910 -0.1023
    1W        W57230  10.271   2.399   8.780  0.0887  0.0647  0.2304
    1W        W57231  29.746  14.576   6.258 -0.0469 -0.0245 -0.1260
    1W        W57232  12.111   7.929   7.680  0.1092 -0.3140  0.1503
    1W        W57233  10.032  19.392   8.007 -0.2982  0.0232 -0.0649
    1W        W57234  23.955   5.343   2.042  0.2406 -0.0684  0.1907
    1W        W57235   7.895  27.598   2.071 -0.1568  0.3656  0.0755
    1W        W57236   4.300  20.541   0.671 -0.2525 -0.0717 -0.0854
    1W        W57237  19.607   8.793   8.639 -0.0865 -0.2140 -0.1036
    1W        W57238   4.490  19.731   1.620  0.1176 -0.2350  0.0392
    1W        W57239   4.730   1.986   2.443  0.0435 -0.0337  0.3626
    1W        W57240  26.421   7.340   7.362 -0.0639  0.1514 -0.0460
    1W        W57241  22.045   4.851   0.252 -0.0150 -0.1433 -0.2289
    1W        W57242  21.905   6.286   0.560  0.0347 -0.1751 -0.3827
    1W        W57243   2.491   1.984   2.252 -0.0648 -0.0333 -0.3691
    1W        W57244  14.624  16.416   8.288  0.0985  0.1572 -0.0821
    1W        W57245  29.735  22.738   8.921  0.1234  0.1980 -0.0084
    1W        W57246  29.301   5.415   7.106 -0.2499 -0.1043  0.2248
    1W        W57247   9.098   8.989   8.347 -0.1592 -0.1974  0.3249
    1W        W57248   2.543   6.930   7.046  0.2040  0.1637 -0.0678
    1W        W57249  21.253   0.676   0.800 -0.0657  0.0136  0.0197
    1W        W57250   7.121  20.869   0.695 -0.2236 -0.0475 -0.0649
    1W        W57251   7.438   1.486   0.421 -0.1596 -0.0871 -0.3093
    1W        W57252  23.098  21.097   0.164  0.2479  0.0929  0.2395
    1W        W57253   4.341  26.293   1.157  0.3648 -0.3122 -0.2401
    1W        W57254   2.782   7.935   1.546  0.1136  0.0191  0.1275
    1W        W57255   9.480  14.968   1.284 -0.1851 -0.0660  0.1401
    1W        W57256  22.596  21.025   8.278 -0.0720 -0.4780 -0.3173
    1W        W57257  13.563   4.118   0.641 -0.0224  0.0950  0.1520
    1W        W57258   9.967   7.668   1.332 -0.0364 -0.2758 -0.0595
    1W        W57259   4.136  26.980   0.151 -0.0626  0.1874 -0.0343
    1W        W57260  20.688   9.550   0.659  0.3428 -0.0786 -0.2066
    1W        W57261  29.370  17.837   1.900 -0.1901 -0.0098  0.0288
    1W        W57262   4.672   6.464   9.115 -0.0849  0.2118  0.0261
    1W        W57263  17.970  18.189   1.536 -0.0384  0.0244  0.2315
    1W        W57264  11.213   2.553   9.385  0.1271 -0.1460  0.3734
    1W        W57265  22.226   1.640   3.051  0.0652 -0.3381 -0.2086
    1W        W57266  23.758  18.879   0.836 -0.0132  0.2310 -0.0230
    1W        W57267  17.127  25.208   9.263 -0.1707  0.1715  0.2881
    1W        W57268  16.574  25.209   8.857 -0.1852  0.1513  0.0390
    1W        W57269  28.977   9.871   0.154  0.2267  0.0832 -0.1266
    1W        W57270  25.912  16.348   6.736 -0.4161  0.1333  0.0663
    1W        W57271  21.416  17.561   8.339  0.0511 -0.1140  0.1557
    1W        W57272  15.072   0.511   0.293  0.0668 -0.3858  0.2122
    1W        W57273   7.517  27.248   1.978 -0.0486  0.2208  0.0334
    1W        W57274  11.149  14.014   9.306  0.2011 -0.1113 -0.1444
    1W        W57275  21.465   6.791   7.296  0.3301 -0.3031  0.0117
    1W        W57276  23.399  22.325   8.811 -0.0850  0.1840 -0.0993
    1W        W57277  24.092   5.266   7.812  0.3160 -0.0389  0.0783
    1W        W57278  27.604  19.728   8.828  0.2523  0.1219 -0.0853
    1W        W57279   7.378   5.923   8.730 -0.0063 -0.0539 -0.1427
    1W        W57280  26.624   9.966   6.698 -0.1771  0.1062 -0.2599
    1W        W57281  28.438  14.116   1.748 -0.0800  0.1070 -0.0122
    1W        W57282  12.290   7.776   1.630 -0.0677 -0.1400  0.0683
    1W        W57283  22.479  16.123   7.583  0.3474  0.2992 -0.0376
    1W        W57284  24.772  23.958   7.311  0.2902  0.1171  0.0348
    1W        W57285  25.765   5.811   0.029 -0.1282  0.1174  0.1955
    1W        W57286  22.658   6.909   1.061  0.2424  0.0708 -0.0270
    1W        W57287   6.094   2.002   0.577  0.0775  0.1575 -0.1271
    1W        W57288  14.999   8.768   0.748 -0.1667  0.1244 -0.1054
    1W        W57289   4.821  29.168   2.272 -0.0428  0.0473  0.0113
    1W        W57290  19.045   7.345   1.095 -0.0929  0.0379  0.2880
    1W        W57291   9.025   9.571   2.856 -0.1676 -0.1353 -0.0238
    1W        W57292  14.221  26.385   8.532  0.1983  0.0050 -0.0759
    1W        W57293  12.105   4.971   6.837  0.1955  0.3314 -0.1126
    1W        W57294   1.612   6.057   7.430 -0.1541 -0.3793  0.0214
    1W        W57295  19.211   9.087   0.812  0.3385 -0.0108 -0.0670
    1W        W57296  16.598  28.278   1.312  0.0335 -0.0615  0.0483
    1W        W57297  25.216  11.223   6.974 -0.0705 -0.1457  0.0634
    1W        W57298  23.160  20.475   6.677 -0.2667  0.2744 -0.1182
    1W        W57299  10.138  12.669   9.080  0.2222 -0.0294  0.2445
    1W        W57300   4.179  25.991   1.523 -0.2982 -0.1568  0.1452
    1W        W57301  26.096  26.833   3.037  0.1357  0.0613 -0.0344
    1W        W57302   4.129  28.482   8.534 -0.1795  0.1918  0.1079
    1W        W57303  29.276  19.977   2.604 -0.0258  0.0760 -0.0614
    1W        W57304  25.770   8.333   7.483  0.0571  0.0341 -0.0922
    1W        W57305   7.859  11.518   7.070  0.1748  0.1098 -0.0352
    1W        W57306   5.098   7.448   1.022 -0.2293 -0.3664  0.2336
    1W        W57307  24.674  28.704   8.657 -0.0768  0.3131 -0.1559
    1W        W57308   2.171  23.967   1.857  0.1646 -0.0546  0.0446
    1W        W57309  20.744   2.842   8.668  0.2330  0.0719  0.2478
    1W        W57310  20.798  19.795   0.538 -0.0146  0.1208 -0.0258
    1W        W57311  12.845  25.947   8.781 -0.3970 -0.1413 -0.0114
    1W        W57312   2.468  20.686   9.304  0.0533 -0.1951  0.1820
    1W        W57313  26.906   0.048   2.518  0.1166  0.1063 -0.0702
    1W        W57314  10.465   6.720   1.944 -0.0429 -0.0897  0.1224
    1W        W57315  19.515   1.954   1.175 -0.0082 -0.1193  0.0740
    1W        W57316  25.943   7.570   9.126 -0.0174 -0.1365  0.0219
    1W        W57317  19.797  25.369   1.316  0.0002  0.0149  0.0786
    1W        W57318  13.785  25.462   2.187 -0.2103  0.0893  0.1850
    1W        W57319  24.142  19.449   7.049 -0.2488 -0.0228  0.0755
    1W        W57320   9.281  26.670   6.767 -0.1446  0.1934  0.0167
    1W        W57321  26.828  10.870   1.167  0.3006  0.3106  0.0452
    1W        W57322  15.384  28.060   0.450  0.2624  0.1233 -0.2473
    1W        W57323   0.360  27.127   0.473  0.1367 -0.1277  0.2292
    1W        W57324  12.137  10.163   7.838 -0.0634  0.2736 -0.0058
    1W        W57325  17.524  16.802   7.698 -0.0908  0.0853  0.0544
    1W        W57326  23.586  19.469   2.530 -0.2223 -0.0755  0.1617
    1W        W57327  24.295  25.699   8.823  0.1106 -0.3965  0.1337
    1W        W57328  26.973  19.082   8.119 -0.1791 -0.0416  0.0622
    1W        W57329   3.564   5.602   1.111  0.1079 -0.1348 -0.2672
    1W        W57330  24.082  24.018   1.403  0.1144  0.1588  0.2211
    1W        W57331  19.628   8.451   0.112  0.0092  0.1261 -0.1651
    1W        W57332   9.821  20.569   1.647  0.2685 -0.0238 -0.0284
    1W        W57333  21.257  24.415   6.751 -0.0520  0.1375 -0.1899
    1W        W57334   3.886  27.699   1.034 -0.2175  0.1571  0.0578
    1W        W57335   2.796   6.323   2.043 -0.0886 -0.0232  0.0655
    1W        W57336  24.920   1.708   0.513  0.1021 -0.1490 -0.3294
    1W        W57337   0.487  26.678   6.597  0.2125 -0.2499  0.1536
    1W        W57338   8.703   8.204   2.552  0.0574 -0.0551 -0.3883
    1W        W57339   6.243   9.869   8.564  0.2031  0.0417 -0.1296
    1W        W57340   5.029  22.624   6.264 -0.0812  0.0141  0.1240
    1W        W57341  23.722  21.996   9.132  0.0671 -0.1365 -0.0811
    1W        W57342  21.090  11.335   7.456  0.1083 -0.0914  0.0799
    1W        W57343  11.566   4.903   1.092  0.1073  0.0265  0.1678
    1W        W57344  14.899  15.407   1.447  0.1531 -0.0018  0.1485
    1W        W57345   9.974  15.011   2.030  0.0744  0.2206 -0.2630
    1W        W57346  16.614  28.778   9.357 -0.1246 -0.2628  0.0174
    1W        W57347  29.526   5.317   0.272  0.1623 -0.1395  0.0916
    1W        W57348  13.333  10.922   7.603  0.1101  0.0538 -0.0499
    1W        W57349  28.317  22.612   8.781 -0.0004  0.4047 -0.0027
    1W        W57350   8.579  15.154   8.148 -0.2662  0.0987 -0.1379
    1W        W57351  15.008   6.126   1.190 -0.2449  0.1140 -0.1050
    1W        W57352   2.500  23.802   6.716 -0.1825  0.1905  0.0160
    1W        W57353  23.801  29.322   1.047  0.1298 -0.0440  0.2771
    1W        W57354  19.571  25.018   2.184 -0.2331 -0.1153 -0.2492
    1W        W57355  22.419  24.688   0.121  0.1520  0.0719  0.0538
    1W        W57356   9.936  23.514   6.428  0.2137 -0.0118  0.0511
    1W        W57357  17.065  18.561   6.986  0.1108 -0.0956 -0.0977
    1W        W57358   0.200  29.355   2.855  0.1738  0.0375  0.0239
    1W        W57359  14.039  17.193   0.822  0.2474 -0.0140 -0.2545
    1W        W57360   2.964   9.590   1.955 -0.3387 -0.1849 -0.2786
    1W        W57361  14.241   2.522   1.086  0.3373 -0.0667 -0.0946
    1W        W57362  21.154  19.991   1.996 -0.1506 -0.0872 -0.0313
    1W        W57363  15.287  15.571   7.226 -0.0453  0.2343  0.0492
    1W        W57364   8.113  20.544   1.006  0.0951 -0.1032  0.0411
    1W        W57365   5.574  23.348   1.610  0.0947  0.0098  0.0310
    1W        W57366  26.827  13.494   1.132  0.2078 -0.0196  0.0666
    1W        W57367  21.046   4.982   8.338  0.0501  0.3295  0.0913
    1W        W57368  12.534  26.766   6.974 -0.1467  0.3272  0.1987
    1W        W57369  12.120   2.065   3.293 -0.0720  0.0565 -0.0737
    1W        W57370  11.936  11.938   7.399  0.0165  0.1235 -0.2605
    1W        W57371   1.187  20.586   6.524 -0.0968  0.1068  0.2008
    1W        W57372  15.566  10.141   8.603  0.2429 -0.1846 -0.1668
    1W        W57373   4.815  10.486   1.935 -0.0242  0.0790  0.1725
    1W        W57374   3.606  13.287   2.902 -0.0501 -0.1408  0.0088
    1W        W57375  26.931   8.194   8.103 -0.0707 -0.0125  0.2405
    1W        W57376   8.875   5.553   0.174  0.4054 -0.1128 -0.1014
    1W        W57377   1.810  27.834   2.408  0.4820  0.3379 -0.0724
    1W        W57378  21.989  12.531   0.419 -0.1149  0.1310 -0.1379
    1W        W57379  18.363  27.993   8.741 -0.1281  0.1102  0.0894
    1W        W57380   8.323  26.561   8.133  0.0860  0.0341 -0.1572
    1W        W57381  14.262   5.537   3.084  0.1429 -0.1825 -0.0006
    1W        W57382  18.247   6.782   7.767  0.0363 -0.2482  0.0223
    1W        W57383   0.804  22.379   2.088  0.0900  0.0411 -0.0670
    1W        W57384   2.352  12.442   0.196 -0.1366 -0.0156 -0.1629
    1W        W57385  18.527  11.118   1.032 -0.1354 -0.0495  0.0386
    1W        W57386   1.379  12.109   6.843 -0.2480  0.1294 -0.1316
    1W        W57387  10.416  24.858   8.393  0.0146 -0.1099  0.0601
    1W        W57388   3.116  11.223   1.756  0.0774  0.0342  0.3020
    1W        W57389  20.893   1.041   0.878 -0.0099 -0.2544  0.2054
    1W        W57390  20.603   6.495   1.111  0.1389  0.1635  0.1228
    1W        W57391   4.776  25.417   1.082  0.0884 -0.0931  0.1612
    1W        W57392  25.470  23.075   6.448 -0.2160 -0.0776 -0.2220
    1W        W57393   5.963  16.474   1.721 -0.2450  0.0638 -0.0676
    1W        W57394  29.620   9.375   7.607  0.1668 -0.0570  0.1520
    1W        W57395  28.116   4.678   1.835 -0.2979 -0.4153 -0.1186
    1W        W57396   4.902  27.045   3.105 -0.2057  0.1936  0.1863
    1W        W57397   3.611  24.447   6.429 -0.2361  0.0479 -0.1213
    1W        W57398   9.214  21.619   7.961 -0.0158 -0.3049  0.4177
    1W        W57399  29.507  23.493   8.002  0.1347  0.3717  0.0903
    1W        W57400  14.716  25.518   9.212 -0.0256 -0.0813  0.1901
    1W        W57401   6.536  11.659   8.208  0.1893  0.2390 -0.0203
    1W        W57402  23.624  22.728   2.538  0.2308 -0.0672 -0.0306
    1W        W57403  26.341   2.426   1.425  0.1012  0.0411  0.1950
    1W        W57404   4.592  28.219   1.117 -0.1161  0.0731  0.0871
    1W        W57405   2.446   3.323   2.110 -0.0691  0.2438 -0.0160
    1W        W57406  13.718   8.985   2.935 -0.2808  0.0691 -0.0068
    1W        W57407  23.525  22.671   7.142  0.0448  0.1918 -0.0688
    1W        W57408  22.032  19.401   0.114 -0.2306  0.1346 -0.0973
    1W        W57409  26.596  25.786   1.612 -0.1296  0.1768  0.3828
    1W        W57410   4.412   3.151   8.736 -0.1894 -0.0502 -0.0475
    1W        W57411  24.073  24.564   7.201  0.0651 -0.0476 -0.0244
    1W        W57412  17.112  29.034   9.282  0.0034  0.0469 -0.0068
    1W        W57413  12.795  22.183   2.620  0.0530  0.2264 -0.3111
    1W        W57414  14.363  21.008   0.795  0.1164 -0.0923 -0.3374
    1W        W57415   0.865   4.929   3.221  0.0951  0.0888  0.3310
    1W        W57416  15.739  16.642   0.374 -0.0645  0.2467  0.1001
    1W        W57417  17.947   9.033   0.512  0.0383  0.2364 -0.0781
    1W        W57418  15.316  19.630   8.116 -0.0588 -0.1275 -0.0290
    1W        W57419   2.600  23.392   2.545 -0.0354  0.0096  0.0317
    1W        W57420  14.536  15.620   8.509  0.0510 -0.0669  0.3695
    1W        W57421  21.424  18.293   1.747 -0.2511 -0.0844 -0.2350
    1W        W57422  17.294   5.715   2.704  0.1408  0.1767 -0.0953
    1W        W57423  26.405   6.369   7.607 -0.0775 -0.0577  0.0238
    1W        W57424  27.921  19.050   6.096 -0.2745  0.2967 -0.0013
    1W        W57425   6.140  21.762   2.204  0.2718  0.5318 -0.2015
    1W        W57426   4.918   8.501   2.136  0.0358  0.1279  0.0822
    1W        W57427   5.605   2.980   0.054 -0.0353  0.0167 -0.2728
    1W        W57428  23.004  26.128   7.318  0.1617  0.1025 -0.1708
    1W        W57429  16.592  27.305   2.296 -0.2852  0.2234  0.0483
    1W        W57430  12.096   2.255   0.813  0.2062 -0.1679  0.2847
    1W        W57431   3.015  25.028   0.973 -0.0472 -0.1174  0.3669
    1W        W57432  25.028  23.360   6.434  0.0574  0.1009 -0.1030
    1W        W57433  28.352  22.601   2.692 -0.3116  0.0250  0.2632
    1W        W57434  28.154   2.949   8.712 -0.6110  0.3173 -0.0323
    1W        W57435  12.666  21.503   1.196  0.2232 -0.1948  0.1770
    1W        W57436  23.740   9.530   8.626  0.1015 -0.2175  0.4170
    1W        W57437   1.723  19.409   1.344  0.1719  0.3678 -0.1172
    1W        W57438  19.153  13.867   0.130 -0.0596 -0.0400 -0.2799
    1W        W57439   3.813  26.261   1.776  0.0802  0.5839  0.2566
    1W        W57440  17.867  29.558   0.198  0.2173  0.3348 -0.0329
    1W        W57441  10.225  10.898   1.337 -0.0000  0.2009  0.3156
    1W        W57442  16.621   3.665   1.923  0.1487 -0.0868 -0.2007
    1W        W57443   6.234   3.751   7.014  0.1058 -0.0424  0.0361
    1W        W57444   0.009   4.030   1.334 -0.2791 -0.1865 -0.0581
    1W        W57445   0.535   8.944   3.172 -0.0490 -0.0964 -0.1536
    1W        W57446  27.856   3.146   7.312  0.3762 -0.0412 -0.0141
    1W        W57447  16.624  19.145   9.340 -0.3618  0.0760  0.2367
    1W        W57448   1.989  21.340   8.488  0.0095  0.1241  0.0393
    1W        W57449  16.882  27.196   7.348 -0.0532 -0.0731 -0.2416
    1W        W57450   3.940  25.549   1.236  0.1576 -0.1926  0.0173
    1W        W57451   0.664  10.219   7.642  0.0851 -0.0446  0.1202
    1W        W57452  25.413   4.236   8.373  0.3482  0.0396  0.0094
    1W        W57453  13.365  29.442   8.357  0.0048  0.0928 -0.1790
    1W        W57454  29.019  18.803   0.735 -0.0708 -0.1138  0.1511
    1W        W57455   4.003  18.772   0.866  0.1591  0.0290 -0.1140
    1W        W57456   5.320  14.369   0.566 -0.0280 -0.0483  0.1152
    1W        W57457   1.872   7.517   2.365 -0.2696 -0.1223 -0.2029
    1W        W57458   9.038   6.478   1.803 -0.0132  0.1103  0.0545
    1W        W57459  19.912   1.659   8.724 -0.3785 -0.2636  0.1899
    1W        W57460   2.474  26.616   2.213  0.1436 -0.2929  0.0813
    1W        W57461   5.788  11.940   8.966 -0.0172 -0.0074  0.0233
    1W        W57462  19.581   3.827   7.705 -0.2243 -0.0356 -0.1466
    1W        W57463  28.993   8.520   9.130  0.1310 -0.2152 -0.2024
    1W        W57464   4.712   2.803   8.444  0.0056 -0.2907  0.2780
    1W        W57465  28.947   5.747   9.172  0.5150  0.1059  0.0389
    1W        W57466   7.595   0.949   1.555  0.0067 -0.2320 -0.0714
    1W        W57467   7.553  14.937   1.516  0.1627 -0.1830  0.0142
    1W        W57468   5.462   9.626   8.006  0.1017  0.2594  0.2193
    1W        W57469  10.729   9.839   8.195 -0.2488 -0.3259  0.1099
    1W        W57470  16.948  23.862   0.637  0.0094 -0.0373  0.1793
    1W        W57471  23.993   8.986   9.448 -0.0018 -0.2350 -0.1896
    1W        W57472   8.007   2.758   2.552 -0.1706  0.0939 -0.1945
    1W        W57473  13.813  29.132   3.826  0.0249 -0.0844  0.1222
    1W        W57474   0.549  20.695   7.738  0.3767 -0.0351  0.1413
    1W        W57475  23.433  25.917   7.064  0.2656 -0.1785 -0.0621
    1W        W57476   8.288  29.685   0.586  0.0207 -0.0289 -0.1488
    1W        W57477  28.726   3.524   3.361  0.0909  0.0779 -0.1935
    1W        W57478   2.773  11.238   6.603 -0.2805  0.0044  0.1183
    1W        W57479   4.977   5.733   6.914  0.2027  0.0154 -0.0729
    1W        W57480   8.429  11.932   8.771 -0.2093 -0.0029  0.0476
    1W        W57481  19.648   8.930   7.129  0.0112 -0.1698  0.0135
    1W        W57482  19.972   8.450   1.175 -0.3996  0.3284  0.2994
    1W        W57483   2.281   5.884   6.495  0.3408  0.0308 -0.1524
    1W        W57484   3.529  26.342   7.465 -0.0663 -0.0223  0.0935
    1W        W57485   2.355  22.705   1.579 -0.1190  0.3561 -0.0470
    1W        W57486  11.937  21.398   1.119 -0.1006  0.2489  0.0307
    1W        W57487   1.707  18.956   1.002  0.0334 -0.0879  0.1102
    1W        W57488  13.093  16.069   8.425 -0.1869  0.2059  0.2787
    1W        W57489  15.728  23.511   1.318  0.0547  0.0688  0.1073
    1W        W57490   8.741  22.307   6.408  0.2753  0.1460  0.0228
    1W        W57491   9.856   8.566   3.640 -0.0254  0.0576  0.1513
    1W        W57492  27.962  28.180   1.085 -0.1335  0.2484 -0.0829
    1W        W57493  11.479   6.390   0.729 -0.0657 -0.2317 -0.2435
    1W        W57494  18.812  17.691   7.524 -0.3686 -0.3725  0.0011
    1W        W57495  25.324  23.049   2.199 -0.1794  0.2106  0.2969
    1W        W57496  25.581  23.510   8.667  0.1728 -0.0190  0.0188
    1W        W57497   6.236  14.046   2.255 -0.1857  0.1275  0.1033
    1W        W57498  22.344   3.144   7.537  0.0377  0.0340 -0.0709
    1W        W57499  22.446  17.321   1.623 -0.0526  0.0799 -0.1800
    1W        W57500   8.905   5.703   1.265  0.0376  0.0467  0.1558
    1W        W57501  20.060  29.303   8.249 -0.1256 -0.1629 -0.0811
    1W        W57502  20.068   0.112   2.973  0.0381  0.1239  0.1731
    1W        W57503  16.059  22.275   0.923 -0.1392 -0.1025 -0.1130
    1W        W57504  29.301  28.455   2.362 -0.0278 -0.6595 -0.1935
    1W        W57505   2.889  13.046   1.402 -0.0471 -0.3084 -0.1489
    1W        W57506   1.731   4.127   8.080 -0.0501 -0.0319 -0.0332
    1W        W57507  12.505   1.250   0.180  0.3163  0.1620 -0.1338
    1W        W57508  11.833   7.556   8.156  0.0441  0.2092  0.0626
    1W        W57509  18.926   4.458   7.838  0.0575 -0.0468 -0.1280
    1W        W57510  23.972   0.655   2.473 -0.1747  0.1950 -0.2828
    1W        W57511  24.193  20.849   1.799 -0.0715 -0.2050 -0.4426
    1W        W57512  27.918  10.778   8.553 -0.4649  0.1159 -0.0902
    1W        W57513  21.895   4.069   8.623 -0.1790 -0.0233 -0.2412
    1W        W57514  26.457   9.456   1.612 -0.0463 -0.0598  0.3507
    1W        W57515  24.644  27.466   9.069 -0.4029  0.1492  0.0604
    1W        W57516   7.485  21.826   6.430  0.2573  0.1002 -0.0074
    1W        W57517  10.590   0.349   1.661 -0.0833  0.0214 -0.0393
    1W        W57518  20.599  11.608   7.315 -0.2608 -0.0565 -0.1454
    1W        W57519   5.313   7.058   0.169  0.0480 -0.2013  0.0911
    1W        W57520   5.717  10.489   1.492 -0.0530 -0.3445  0.2621
    1W        W57521   4.254  14.165   0.922  0.1517 -0.0294  0.1243
    1W        W57522  17.114  26.541   3.802 -0.4789  0.0011  0.1378
    1W        W57523  19.291  10.701   8.001 -0.1792 -0.2657 -0.1059
    1W        W57524   0.096   8.105   9.095 -0.0343 -0.0221 -0.1418
    1W        W57525   5.730  17.965   5.608  0.2752 -0.2722  0.0970
    1W        W57526  20.364  19.981   8.332  0.1524 -0.1549  0.1649
    1W        W57527  17.439   7.440   1.581  0.2358 -0.1578  0.1323
    1W        W57528  24.803   3.566   8.133 -0.2478  0.1756  0.0391
    1W        W57529  11.075   8.899   9.415 -0.3197 -0.1749 -0.2206
    1W        W57530  20.909  16.778   7.067 -0.4813  0.4070  0.1413
    1W        W57531  28.843  23.891   8.846  0.0003 -0.1623 -0.2237
    1W        W57532  13.838  22.254   8.297  0.2955  0.2630  0.0240
    1W        W57533  10.034  18.402   7.775 -0.0283  0.0576  0.0902
    1W        W57534  10.679   8.214   1.791  0.1318 -0.2035 -0.0707
    1W        W57535   7.817  21.237   7.557  0.2796 -0.0598  0.0589
    1W        W57536  25.990  16.868   7.664 -0.0428 -0.0873  0.0559
    1W        W57537   3.770   1.749   9.308  0.1029  0.0692  0.4167
    1W        W57538  11.640  28.283   8.887  0.4094  0.1506 -0.3041
    1W        W57539  13.578   7.834   3.090 -0.2174 -0.1317  0.1020
    1W        W57540  29.373   1.927   6.167  0.0460 -0.1282  0.0191
    1W        W57541  11.922  17.169   9.145  0.0926  0.3329  0.3465
    1W        W57542   3.148  25.995   0.498 -0.1491  0.3085 -0.2046
    1W        W57543  24.867   8.056   9.300 -0.1440  0.0772  0.0716
    1W        W57544   4.572   2.998   1.705  0.2052 -0.0956  0.0834
    1W        W57545   1.795  28.954   8.592  0.2512  0.0377  0.0950
    1W        W57546  24.676  15.209   1.261  0.2613 -0.2236 -0.1994
    1W        W57547  12.696  24.452   8.978 -0.1792  0.3429  0.0542
    1W        W57548  26.036  17.479   8.684 -0.2097 -0.0219  0.2069
    1W        W57549   4.131  17.181   7.663 -0.0892 -0.1851  0.1654
    1W        W57550  16.122  28.500   7.134 -0.0748 -0.1526 -0.0640
    1W        W57551  19.914   6.879   9.358 -0.0547  0.1349  0.0212
    1W        W57552  24.411  23.234   9.132 -0.1418 -0.0091  0.0875
    1W        W57553  17.556   6.225   1.519  0.3655 -0.0777 -0.1460
    1W        W57554  20.424   1.326   7.487 -0.1124  0.1579 -0.1131
    1W        W57555  11.927   0.635   1.557 -0.1261 -0.2158 -0.0846
    1W        W57556   8.769  25.537   8.870  0.1564  0.1271  0.0931
    1W        W57557  10.687  14.565   8.212 -0.1032 -0.2145  0.1211
    1W        W57558  19.587  11.041   9.238 -0.0098  0.1794  0.0818
    1W        W57559  16.574  26.434   1.788 -0.0634 -0.5013 -0.1332
    1W        W57560   2.274   0.276   1.634  0.2977 -0.0957  0.0524
    1W        W57561  29.620  23.988   2.003 -0.2342 -0.2234  0.0188
    1W        W57562   0.199  14.152   6.216  0.0886 -0.0775  0.0220
    1W        W57563   9.968  10.293   2.046  0.0307  0.1206 -0.2193
    1W        W57564  26.003  21.401   8.230  0.3249  0.0471 -0.0089
    1W        W57565  21.305   7.576   8.025 -0.1876 -0.0167  0.3081
    1W        W57566  25.075  14.838   6.822  0.1634  0.0653 -0.0447
    1W        W57567  12.370  14.326   1.002 -0.0158 -0.1306 -0.3265
    1W        W57568   7.194   7.328   7.512  0.2805  0.0517 -0.0519
    1W        W57569  29.742  23.458   0.845  0.1934 -0.0417  0.2467
    1W        W57570  21.694  11.630   6.620 -0.1067 -0.1205  0.1605
    1W        W57571  19.445  29.712   0.224  0.0100  0.2043  0.4380
    1W        W57572  22.302   5.559   6.709  0.1564  0.2023 -0.1892
    1W        W57573  17.130   2.179   1.063  0.1900  0.0058 -0.3860
    1W        W57574  26.542  24.081   0.979  0.1925 -0.4212 -0.0716
    1W        W57575  17.663  21.824   8.661  0.3076 -0.1279 -0.2344
    1W        W57576   6.917   2.859   2.838  0.2558 -0.1472 -0.1515
    1W        W57577   4.492  15.402   8.767  0.1533 -0.0319  0.0905
    1W        W57578  22.508  27.063   0.393  0.1609 -0.2336 -0.0207
    1W        W57579  27.313  14.610   1.516  0.1346 -0.0973 -0.2987
    1W        W57580  20.409  14.019   1.458  0.0699 -0.0459 -0.2790
    1W        W57581  23.002  11.026   5.859  0.1307  0.5042 -0.2059
    1W        W57582  18.366   0.035   6.954  0.0131 -0.1485 -0.2069
    1W        W57583  22.168  22.714   2.278 -0.4528 -0.0427  0.3655
    1W        W57584  24.115   5.648   6.827 -0.1501 -0.0283 -0.3489
    1W        W57585  25.694  11.725   9.175  0.0999  0.2578  0.2379
    1W        W57586  10.889  20.882   8.828 -0.0454  0.2822  0.0326
    1W        W57587  13.909  13.747   0.897  0.2096 -0.0389  0.1462
    1W        W57588   3.991   6.475   2.244  0.1828  0.1062  0.2750
    1W        W57589  28.424  28.344   7.050  0.1485  0.3932  0.3465
    1W        W57590  23.579   2.661   2.945  0.0664 -0.1148  0.1869
    1W        W57591   0.003  14.022   8.975  0.1038 -0.0326  0.0286
    1W        W57592  26.313   0.615   1.364 -0.2731 -0.0506  0.2122
    1W        W57593  14.552  16.369   9.163  0.3497 -0.0952  0.0430
    1W        W57594  26.113  21.646   7.801  0.0405 -0.1705 -0.1009
    1W        W57595  12.295  12.107   7.789 -0.4033 -0.3478 -0.2012
    1W        W57596  17.648   1.621   2.187 -0.1482 -0.1134  0.0115
    1W        W57597  22.358  23.822   1.355 -0.2162 -0.1389  0.2602
    1W        W57598  29.697  18.167   6.963  0.1959  0.2404 -0.0830
    1W        W57599  21.327   8.497   7.590  0.1814 -0.1455  0.2626
    1W        W57600  21.382   1.294   7.766 -0.1211  0.2970 -0.2322
    1W        W57601  12.104  17.294   8.244 -0.0475  0.0119  0.1198
    1W        W57602  20.742   5.256   7.537 -0.0331 -0.1361  0.0185
    1W        W57603   0.075  27.677   3.344 -0.0423  0.0160  0.4342
    1W        W57604  24.093   5.098   8.294 -0.0246  0.3205 -0.1547
    1W        W57605  21.976  15.654   9.421  0.1157  0.1509  0.1328
    1W        W57606  18.661  22.209   8.978 -0.1045 -0.0658 -0.2085
    1W        W57607  11.898  17.070   7.749  0.1017  0.0583  0.3473
    1W        W57608   2.230  26.632   8.836  0.2444  0.1255 -0.2256
    1W        W57609   5.373  17.522   0.060 -0.2760 -0.0071 -0.2059
    1W        W57610  15.919  23.336   7.823  0.0119 -0.2574  0.1837
    1W        W57611  21.687  15.997   0.204 -0.1253  0.1487 -0.0682
    1W        W57612  20.695  14.809   1.326  0.1597  0.2131  0.0216
    1W        W57613  27.342  13.772   0.451 -0.0203 -0.1531  0.0142
    1W        W57614  22.505  20.246   9.402 -0.0341 -0.0973  0.1047
    1W        W57615   1.926  28.255   0.511  0.2227  0.0879 -0.0363
    1W        W57616   9.617  18.191   7.886 -0.2867  0.1918 -0.2474
    1W        W57617  27.926  13.825   0.968 -0.0705 -0.1054  0.0633
    1W        W57618  26.000  29.022   2.735  0.0805  0.3344  0.0287
    1W        W57619  20.117  27.571   9.121  0.0265 -0.0945 -0.1003
    1W        W57620  13.327  13.032   8.072  0.3199 -0.2407 -0.1595
    1W        W57621   3.419   8.522   2.796  0.3153 -0.1710 -0.0088
    1W        W57622   9.355  23.669   8.976 -0.1210  0.1499  0.2916
    1W        W57623  22.371   3.103   8.107  0.0057  0.2509 -0.0223
    1W        W57624  11.104   1.832   2.935  0.0106  0.1458  0.0393
    1W        W57625  11.965  27.604   0.669 -0.2102 -0.0146 -0.0464
    1W        W57626   9.693   1.262   1.680  0.2249  0.1138  0.0693
    1W        W57627  24.308  28.249   0.643  0.3924 -0.1090 -0.2158
    1W        W57628   5.742  19.957   9.017 -0.0188 -0.0765  0.1965
    1W        W57629   1.486   7.109   0.178  0.0627 -0.1633  0.1767
    1W        W57630   0.147   9.175   8.492 -0.0347 -0.0289  0.1535
    1W        W57631   2.408  20.319   8.648 -0.0932  0.0854 -0.2624
    1W        W57632  26.494   9.987   9.254 -0.0548  0.2089 -0.0455
    1W        W57633  27.789   9.554   9.223  0.0311  0.0072 -0.0304
    1W        W57634  22.404  28.545   0.109 -0.0756 -0.0927  0.2889
    1W        W57635  21.064  20.440   7.828 -0.1362  0.0185  0.0733
    1W        W57636  28.320   5.978   0.625 -0.2550  0.0818  0.0472
    1W        W57637  11.565  29.402   8.176 -0.1248  0.0344 -0.1833
    1W        W57638   0.468  16.548   7.186 -0.0806 -0.2720 -0.1506
    1W        W57639  14.557   2.615   7.568 -0.1134  0.2083 -0.1067
    1W        W57640  22.615  23.407   2.301 -0.3762  0.0047 -0.2565
    1W        W57641   8.364  21.824   7.481 -0.3494 -0.0933 -0.0577
    1W        W57642  17.652   8.383   1.258  0.0992 -0.1703  0.1181
    1W        W57643   7.666   0.350   2.761  0.2077 -0.2757 -0.2195
    1W        W57644  27.546  21.760   7.163 -0.2357 -0.1319 -0.1666
    1W        W57645  14.672  23.038   8.551 -0.3406  0.3544  0.2106
    1W        W57646  12.636   1.022   2.165 -0.0844  0.0511 -0.1426
    1W        W57647   9.671   9.453   2.223  0.2513 -0.0247 -0.0120
    1W        W57648   2.301  11.080   6.704 -0.1283 -0.2164  0.5295
    1W        W57649  23.673  22.639   9.087 -0.0169 -0.1504 -0.3131
    1W        W57650  27.983  22.356   8.540 -0.0159  0.1952  0.1902
    1W        W57651  24.558   1.148   8.261 -0.0204  0.0731 -0.1686
    1W        W57652  19.475  12.621   8.801  0.2582 -0.1805  0.4137
    1W        W57653   9.650   1.918   8.193  0.0845  0.0964 -0.0576
    1W        W57654   4.300  15.180   1.278 -0.2099  0.2064  0.0565
    1W        W57655  17.976  27.684   0.753 -0.0217  0.0990 -0.0067
    1W        W57656  17.473  22.062   8.231  0.1523  0.1050 -0.1626
    1W        W57657  15.863  20.875   8.604 -0.3471 -0.0001 -0.1778
    1W        W57658  26.926   7.867   9.265  0.1833 -0.1531  0.0044
    1W        W57659   3.898  25.057   0.376  0.1293 -0.0532  0.2975
    1W        W57660   1.028  14.987   7.108 -0.1179  0.2588  0.0294
    1W        W57661   7.788  16.211   7.974 -0.0631 -0.2739 -0.2848
    1W        W57662  11.657  26.555   6.874  0.1484 -0.1625  0.1595
    1W        W57663   7.900  15.663   8.481 -0.3417  0.2167  0.0479
    1W        W57664  27.709  10.113   9.376 -0.0957 -0.1083 -0.1785
    1W        W57665  26.954   9.792   0.303  0.0645  0.0217 -0.2462
    1W        W57666   8.718  21.295   8.798 -0.0818  0.1953 -0.0712
    1W        W57667  11.396   3.993   8.936 -0.1546  0.0338  0.1929
    1W        W57668  29.473  10.957   1.775  0.0739 -0.0139  0.0413
    1W        W57669  11.925  15.746   9.037 -0.0602 -0.1519  0.3065
    1W        W57670   1.066  20.095   6.504 -0.4001  0.0250  0.2805
    1W        W57671   9.366  27.469   8.959  0.2140  0.0672  0.2028
    1W        W57672   0.936   7.804   6.435 -0.0691 -0.0062 -0.3179
    1W        W57673  29.568  14.340   9.222 -0.4232  0.2279  0.2193
    1W        W57674   0.171   1.656   2.214 -0.0714  0.1661 -0.0732
    1W        W57675  25.873  29.634   8.829 -0.0801 -0.1666  0.2629
    1W        W57676  13.455  28.844   8.205  0.0827 -0.0473 -0.2918
    1W        W57677  17.347  14.014   1.132  0.0460  0.3291  0.2387
    1W        W57678  17.830  14.329   1.573 -0.6585 -0.1768  0.0551
    1W        W57679  19.385   0.526   1.524 -0.1105  0.0080 -0.1161
    1W        W57680  28.116  14.942   7.948  0.2044 -0.0549 -0.0973
    1W        W57681  13.310   0.349   0.448  0.0489 -0.0625  0.2039
    1W        W57682  12.647  15.417   0.725 -0.1260  0.0936 -0.0040
    1W        W57683  23.911   8.136   7.736  0.2728  0.0257 -0.3716
    1W        W57684  17.663   1.776   7.280  0.0922  0.0255  0.0088
    1W        W57685  19.934  25.182   3.107 -0.3365  0.0388 -0.2509
    1W        W57686  16.055  25.929   7.634 -0.2394  0.2913 -0.0644
    1W        W57687   9.327   1.846   1.421  0.0576  0.1093 -0.2016
    1W        W57688  14.845   8.434   6.928 -0.0309 -0.0935 -0.0057
    1W        W57689  23.063  22.252   3.338 -0.1995 -0.2988 -0.0805
    1W        W57690  15.227  16.091   7.294 -0.0477  0.3971 -0.0804
    1W        W57691  25.963   1.734   1.734 -0.1966  0.1554  0.1007
    1W        W57692   6.064   1.226   9.341  0.1347 -0.0895  0.0655
    1W        W57693   4.491  26.834   1.485  0.2408  0.2127 -0.3122
    1W        W57694  15.851   6.300   0.789 -0.0405  0.0471 -0.1460
    1W        W57695   6.620  14.346   0.207  0.0408 -0.4199  0.0251
    1W        W57696   2.600   3.541   9.210  0.0492 -0.3013  0.0596
    1W        W57697  23.269  24.042   2.336  0.1127 -0.1418 -0.0870
    1W        W57698   0.067   9.002   7.714 -0.0559 -0.0519  0.0517
    1W        W57699  27.064  19.713   8.309  0.1298  0.3110  0.4176
    1W        W57700  22.287   6.099   2.562  0.0833 -0.0542  0.3723
    1W        W57701   1.644   4.647   7.215  0.2706  0.0118  0.0878
    1W        W57702  18.051  19.679   2.695  0.1205  0.2676 -0.2256
    1W        W57703  21.266   2.875   1.929 -0.1307 -0.1056  0.3827
    1W        W57704  23.323   2.507   7.309 -0.0788  0.1871 -0.1408
    1W        W57705  22.533   1.910   0.327 -0.2651  0.1611 -0.1459
    1W        W57706  16.677   0.748   8.707 -0.3054 -0.3719  0.0852
    1W        W57707   8.479  28.503   2.655  0.0359 -0.0507  0.4246
    1W        W57708   3.691  12.307   6.507  0.0498  0.0539  0.3182
    1W        W57709  17.549  25.912   7.515  0.1379  0.1871  0.1514
    1W        W57710  20.107  29.401   2.315 -0.1494  0.0613  0.3761
    1W        W57711   3.608  23.848   7.106  0.2890  0.0452  0.1079
    1W        W57712   5.653   0.505   2.604 -0.2861 -0.0745 -0.0201
    1W        W57713  27.230   3.619   1.255 -0.1708  0.0604  0.0047
    1W        W57714  15.160   4.211   9.125  0.2578 -0.1745 -0.0827
    1W        W57715   2.041   9.652   2.412 -0.0861  0.0516  0.1241
    1W        W57716  28.005   6.093   1.432 -0.1078  0.2528  0.0601
    1W        W57717   2.692   9.888   7.591 -0.1140  0.2588 -0.2312
    1W        W57718  27.737   7.616   6.985  0.1091  0.0361  0.0231
    1W        W57719   1.627  17.962   7.587  0.1586 -0.3100 -0.3048
    1W        W57720  26.711  14.078   0.356  0.4527  0.0073 -0.1562
    1W        W57721   4.941  10.988   2.625 -0.0179 -0.3150  0.0015
    1W        W57722  24.795  17.852   6.353 -0.1171  0.1681  0.1954
    1W        W57723  10.307  12.042   1.712 -0.2479 -0.1214  0.2479
    1W        W57724  26.633  17.637   7.869  0.1338 -0.2684 -0.1672
    1W        W57725  20.671  25.381   2.508 -0.0060 -0.0528 -0.0824
    1W        W57726   5.711   4.684   9.111 -0.0698  0.1169 -0.0028
    1W        W57727   9.633  26.206   7.915 -0.2847 -0.3034  0.3655
    1W        W57728  21.724   7.363   7.787 -0.2155  0.2583  0.2405
    1W        W57729  28.718  29.594   7.215  0.2615 -0.0010 -0.2288
    1W        W57730  15.276   4.117   8.146  0.2454  0.2895 -0.0317
    1W        W57731  19.625   0.755   0.776  0.1126  0.0362  0.3095
    1W        W57732  13.764   6.340   2.239 -0.1316 -0.1111 -0.0422
    1W        W57733  19.310   3.409   2.976 -0.0360  0.1146  0.2830
    1W        W57734  19.397   8.906   2.565  0.1734  0.2092  0.0408
    1W        W57735   0.526  22.678   1.195  0.2525  0.2194  0.1690
    1W        W57736   1.228   9.058   8.351 -0.1209 -0.0760 -0.1282
    1W        W57737   5.973   8.597   9.002  0.1584 -0.2457 -0.1586
    1W        W57738  19.415   6.920   8.350 -0.2538 -0.0211 -0.0400
    1W        W57739   8.203  19.493   7.359  0.0340 -0.0709  0.0038
    1W        W57740   5.670  10.076   1.819 -0.1773 -0.2413  0.0512
    1W        W57741  21.911  24.482   1.654  0.2011 -0.4614  0.2307
    1W        W57742  12.682   1.647   6.944 -0.0704 -0.1922 -0.1876
    1W        W57743  17.934  25.846   2.037  0.0678 -0.0835 -0.1485
    1W        W57744  22.727  24.331   7.942 -0.0712  0.0161 -0.0343
    1W        W57745  19.104   5.988   7.993  0.1849  0.0847  0.2179
    1W        W57746   8.665  13.447   0.134 -0.0215 -0.2118 -0.0836
    1W        W57747  22.014  23.576   2.533 -0.2627 -0.1892 -0.1767
    1W        W57748   3.029   6.969   7.275 -0.1354  0.2097  0.0013
    1W        W57749  20.503  29.524   1.916 -0.0020 -0.4299  0.0873
    1W        W57750   2.983  16.061   7.887  0.2787 -0.0758  0.3570
    1W        W57751  10.239  27.593   6.899 -0.2297  0.2625  0.1239
    1W        W57752   3.991  28.321   6.915  0.0475  0.2254  0.0413
    1W        W57753  15.073  13.047   7.297  0.1383  0.1733 -0.0903
    1W        W57754  23.608   9.580   7.495 -0.0640  0.3344 -0.2801
    1W        W57755  26.706  21.104   9.447  0.1656 -0.0278 -0.1418
    1W        W57756  21.863   7.931   0.889 -0.2711  0.3259 -0.0465
    1W        W57757  18.123  25.939   0.766  0.1428  0.2498 -0.2073
    1W        W57758   1.609  19.141   2.742  0.2397  0.1765  0.2975
    1W        W57759   8.086  18.317   7.930 -0.0942 -0.3204  0.0297
    1W        W57760   9.216  16.902   0.378 -0.3263  0.3289 -0.3482
    1W        W57761  27.453  22.690   9.243  0.2939 -0.2218 -0.0478
    1W        W57762  10.369  17.427   8.444  0.0146  0.3099  0.0685
    1W        W57763  24.459  11.465   1.983 -0.0180 -0.0043 -0.0665
    1W        W57764   4.405  11.589   8.585  0.2333  0.1310  0.2741
    1W        W57765  22.459   9.519   1.870  0.1832  0.2118 -0.0350
    1W        W57766   1.100  23.188   9.104  0.0907  0.3135  0.1111
    1W        W57767   5.079  13.874   7.547 -0.2959  0.1455  0.0106
    1W        W57768  29.774   0.587   7.611  0.0519  0.0759  0.2493
    1W        W57769  17.046  26.539   6.764  0.1679 -0.1604 -0.3893
    1W        W57770  20.351  21.888   1.995  0.1054 -0.3570 -0.0152
    1W        W57771  18.292  21.718   1.970 -0.3083 -0.0149  0.2036
    1W        W57772  12.534   9.875   7.435 -0.0293  0.0426  0.0477
    1W        W57773  11.344  16.508   9.433 -0.0133 -0.1569  0.0861
    1W        W57774  10.880   2.242   7.397 -0.0400 -0.2247  0.0665
    1W        W57775  26.768   0.859   3.510 -0.0265  0.1705  0.1312
    1W        W57776  22.481  20.252   8.245  0.0338  0.0866 -0.2310
    1W        W57777  21.423   8.372   6.703  0.0617  0.0211  0.3475
    1W        W57778  12.271  13.817   2.023  0.2201  0.0790  0.2806
    1W        W57779  27.430  19.876   0.798 -0.0284 -0.2222 -0.0205
    1W        W57780  18.084  20.125   8.355  0.5616  0.1469  0.1816
    1W        W57781  22.642   2.597   8.337  0.0596 -0.1860  0.1359
    1W        W57782   7.263  28.862   1.612 -0.0135  0.1745 -0.2363
    1W        W57783  14.436  28.573   0.308 -0.0890  0.0619 -0.0833
    1W        W57784   1.393   8.581   9.170 -0.1467 -0.1244 -0.0397
    1W        W57785  24.707  27.984   3.531  0.3092 -0.0103  0.1462
    1W        W57786  21.917  11.520   1.654  0.0080 -0.2844 -0.0442
    1W        W57787  21.603  23.739   7.143 -0.1214  0.2041  0.2204
    1W        W57788  18.314   7.719   7.190  0.0276 -0.3471 -0.1488
    1W        W57789   6.066  11.287   8.671 -0.3277 -0.2383 -0.2087
    1W        W57790   4.623  21.605   0.159 -0.1693  0.1573  0.1236
    1W        W57791   4.405  17.096   1.060 -0.1107 -0.0279  0.0873
    1W        W57792   5.762  11.744   1.973 -0.1255 -0.1551  0.0103
    1W        W57793  17.555   3.478   2.424  0.1334  0.1770  0.0714
    1W        W57794  18.809  29.347   7.345  0.1497 -0.0717  0.1082
    1W        W57795  14.728  15.942   0.156 -0.1065  0.0739 -0.0204
    1W        W57796  17.754   4.755   9.397 -0.1401 -0.0861 -0.0969
    1W        W57797  28.241  21.424   1.716  0.0004 -0.0211 -0.2637
    1W        W57798   5.406   8.264   8.225  0.0670 -0.3611  0.0722
    1W        W57799  13.645  26.594   6.407 -0.3439  0.0534 -0.1218
    1W        W57800  12.314  28.264   0.696  0.0349 -0.1612  0.2079
    1W        W57801  12.015  14.924   1.798 -0.1784 -0.0350  0.1154
    1W        W57802  20.551  23.612   0.639 -0.0485 -0.1381 -0.0857
    1W        W57803  27.022   5.786   8.244 -0.1587 -0.2435  0.3214
    1W        W57804  13.836  17.878   2.141  0.0996 -0.0508  0.4318
    1W        W57805  27.620  16.471   0.113  0.0983  0.0609  0.1652
    1W        W57806  10.710  29.424   7.980  0.0557  0.2516  0.0500
    1W        W57807  14.800  20.350   8.352 -0.0511  0.1672 -0.1578
    1W        W57808  24.650   9.673   1.272 -0.0344  0.1767 -0.1892
    1W        W57809   2.167   1.111   8.743 -0.0240  0.3820  0.3303
    1W        W57810  21.939  11.110   7.861 -0.2512 -0.0497  0.3255
    1W        W57811   0.999  19.311   6.855  0.1619  0.0177  0.2113
    1W        W57812  25.859  23.332   7.159 -0.1198  0.0616 -0.0503
    1W        W57813  23.743  17.769   7.334  0.1334  0.0923 -0.0096
    1W        W57814  29.237  20.521   0.571 -0.1247  0.1857 -0.1160
    1W        W57815  12.319  14.476   1.612  0.0027 -0.1585 -0.1710
    1W        W57816  23.193  14.192   0.365 -0.1138  0.1096  0.0136
    1W        W57817  12.662   0.044   7.731 -0.1116 -0.1220 -0.4488
    1W        W57818  15.066   0.264   7.886  0.0662  0.1123 -0.1454
    1W        W57819  23.209  15.119   9.415 -0.0238 -0.0898 -0.2664
    1W        W57820  17.906  14.225   0.797 -0.2729 -0.2741  0.0423
    1W        W57821  12.525   4.455   3.568  0.2064 -0.2085 -0.1916
    1W        W57822  19.860   3.288   7.668 -0.1317 -0.1574  0.3815
    1W        W57823  25.857  17.133   1.000 -0.0588  0.1834  0.2381
    1W        W57824   7.152  24.798   6.354  0.1387  0.1290 -0.0352
    1W        W57825  27.278   6.022   2.057  0.0791  0.3044  0.0132
    1W        W57826   6.486  16.346   7.389 -0.2788 -0.0409  0.1096
    1W        W57827  13.944  25.278   8.092  0.0940 -0.0108 -0.0611
    1W        W57828  16.015  17.205   1.155 -0.0755 -0.3916 -0.3452
    1W        W57829  11.938   3.123   2.779  0.1700  0.0856 -0.0820
    1W        W57830   0.226  24.299   6.438  0.3952 -0.0539 -0.0199
    1W        W57831  10.121   3.347   3.462 -0.0527 -0.0292  0.0098
    1W        W57832  23.629  20.240   3.254 -0.0768 -0.0253 -0.2712
    1W        W57833  19.995  19.489   2.432 -0.2565 -0.2956 -0.0627
    1W        W57834  10.417   6.357   2.718 -0.1844 -0.1176 -0.1318
    1W        W57835  11.790  28.042   2.221  0.0728 -0.1109  0.0574
    1W        W57836   4.236   4.223   7.444  0.2511  0.1094  0.0956
    1W        W57837   0.610  29.340   1.135 -0.1246  0.3976 -0.1318
    1W        W57838  15.976  16.960   8.644  0.0955 -0.0552 -0.1231
    1W        W57839   1.828  24.846   7.073 -0.3402 -0.3037  0.3086
    1W        W57840  12.415   6.128   7.533  0.2237 -0.0019  0.0756
    1W        W57841   3.296  10.183   1.168  0.1914  0.0735 -0.0894
    1W        W57842  12.831  10.029   1.171  0.0344  0.0477 -0.2475
    1W        W57843  21.790   2.182   8.852 -0.0383  0.0530  0.2082
    1W        W57844   2.357   8.353   3.367  0.1199 -0.1241 -0.1454
    1W        W57845   2.528  29.485   0.307 -0.1823 -0.2156  0.3166
    1W        W57846  19.196  21.984   2.342  0.1263  0.1957  0.2070
    1W        W57847   9.068  28.991   8.443 -0.0695  0.1976  0.0507
    1W        W57848   3.409   9.797   0.816 -0.0579  0.0247 -0.1211
    1W        W57849  15.622  24.133   7.938  0.0374  0.0978 -0.3053
    1W        W57850  18.860   1.852   1.197  0.0098  0.0958 -0.1333
    1W        W57851  27.039   0.419   8.834  0.1399  0.0853 -0.3203
    1W        W57852  24.414   8.784   9.316  0.1155 -0.2104  0.0266
    1W        W57853  13.248  27.912   8.602 -0.0132  0.0426 -0.4507
    1W        W57854   5.989  15.172   0.791  0.1207 -0.0756 -0.2582
    1W        W57855   3.134   8.596   6.416 -0.1887  0.2020 -0.0581
    1W        W57856  28.088  20.978   8.252  0.1140 -0.1288 -0.0167
    1W        W57857  11.618   5.090   0.235  0.0094  0.0756  0.1583
    1W        W57858  13.769  19.919   7.199 -0.0135 -0.2920 -0.1093
    1W        W57859   3.766   9.197   2.740 -0.1137 -0.3521 -0.0159
    1W        W57860  15.845  19.927   0.884  0.1606  0.2912  0.1495
    1W        W57861   4.442  24.912   6.436 -0.2339  0.1967 -0.3135
    1W        W57862  27.428   0.320   0.759  0.1190  0.0249 -0.0652
    1W        W57863   6.864   6.478   7.855 -0.1864  0.4668 -0.3749
    1W        W57864  16.493  25.505   0.316  0.1929 -0.2018  0.1673
    1W        W57865  26.729  11.284   1.548  0.2780 -0.0537  0.0665
    1W        W57866  19.775  14.169   8.660 -0.0683 -0.1295  0.0169
    1W        W57867  23.659   1.874   1.673  0.1742 -0.4203 -0.0555
    1W        W57868  12.573   3.659   8.148  0.3820 -0.0837 -0.1859
    1W        W57869  11.140  15.123   1.416 -0.1195 -0.0997  0.1283
    1W        W57870   2.935  15.144   0.954  0.0009  0.0520 -0.0205
    1W        W57871  26.373  10.366   0.023  0.1342 -0.1683  0.3536
    1W        W57872  24.310   9.975   1.056 -0.1520  0.0236  0.2310
    1W        W57873   9.820   7.323   0.465 -0.2046 -0.0847  0.1852
    1W        W57874   3.039  20.668   6.738 -0.1430  0.1922 -0.0200
    1W        W57875   6.591   9.019   1.242  0.0145  0.0320  0.2138
    1W        W57876  24.744   6.536   2.741 -0.1361  0.1839  0.1064
    1W        W57877   3.262  28.462   0.044  0.1938 -0.0966  0.3067
    1W        W57878  28.893   6.628   7.265 -0.2571  0.2658 -0.0396
    1W        W57879   7.406  14.738   7.298  0.0434 -0.0876 -0.0676
    1W        W57880  17.402   2.608   0.820  0.1973 -0.1765  0.1179
    1W        W57881  13.247  20.807   7.088  0.0925 -0.1944  0.3848
    1W        W57882  22.871   8.002   1.280  0.2241 -0.0943  0.0048
    1W        W57883  15.872  11.645   7.557 -0.0064  0.0597  0.0980
    1W        W57884  11.089   0.197   8.711 -0.1857  0.0186 -0.3548
    1W        W57885  26.690   8.214   2.837  0.0559  0.1418  0.2057
    1W        W57886  25.133  29.821   1.450  0.3179 -0.1157  0.2702
    1W        W57887   4.545   7.190   6.942  0.0537  0.1573  0.2871
    1W        W57888   3.381  26.790   6.664 -0.0641 -0.0355 -0.0406
    1W        W57889  29.149   9.031   8.736 -0.2277  0.2844 -0.4470
    1W        W57890  26.077  22.323   2.145 -0.1047 -0.1085 -0.0419
    1W        W57891  23.659   5.438   6.807  0.2645 -0.1093  0.0036
    1W        W57892  22.479   1.816   1.738 -0.1802 -0.3683  0.3251
    1W        W57893   0.033  28.894   7.535  0.3175  0.2819 -0.1641
    1W        W57894   1.329  19.757   1.231 -0.0279 -0.2363 -0.2411
    1W        W57895  29.743   7.952   8.057  0.0446 -0.0658 -0.1890
    1W        W57896  13.307  16.141   1.244 -0.0525  0.0451  0.1940
    1W        W57897  15.082  10.400   0.853 -0.0291 -0.0009  0.1066
    1W        W57898  15.206  17.007   9.026 -0.0354  0.0413 -0.3168
    1W        W57899  29.308  16.124   0.711 -0.0719 -0.1224  0.2081
    1W        W57900  15.729  16.127   0.464 -0.0155  0.0211 -0.0919
    1W        W57901  18.282  17.294   0.243 -0.1207  0.1576  0.0978
    1W        W57902   5.622   1.703   2.218  0.1048 -0.0225 -0.1294
    1W        W57903  16.475  10.899   6.915 -0.0108  0.0885  0.1794
    1W        W57904  12.411  21.671   8.800 -0.3326  0.0562 -0.1130
    1W        W57905  10.253  16.497   1.073  0.2805  0.2446 -0.1582
    1W        W57906   2.665  13.028   6.794 -0.0390 -0.1198  0.0592
    1W        W57907  27.097  12.689   0.672 -0.2493  0.0166  0.2198
    1W        W57908  21.579  24.832   7.458  0.0486  0.1846 -0.2265
    1W        W57909  22.504   8.642   7.366 -0.0088 -0.2183  0.1501
    1W        W57910   5.725  26.049   8.836 -0.1535  0.3478  0.2745
    1W        W57911   7.082  19.261   9.285  0.1601  0.0917 -0.0484
    1W        W57912  19.676  12.714   1.662  0.0402 -0.1688 -0.0812
    1W        W57913  14.092   6.707   8.981  0.4726 -0.0480 -0.3297
    1W        W57914  14.724  18.049   1.326  0.1430  0.1025 -0.1480
    1W        W57915  27.815  25.025   0.332 -0.0616  0.1527  0.1793
    1W        W57916  13.061   0.629   6.743 -0.0995  0.2410 -0.1582
    1W        W57917  26.363  26.888   0.789  0.0216  0.1808 -0.1759
    1W        W57918  23.060  26.410   9.314  0.1103 -0.0658  0.2378
    1W        W57919  29.819   9.203   1.309 -0.0377 -0.0239 -0.3230
    1W        W57920  18.429  29.073   8.537 -0.0736  0.2807  0.1714
    1W        W57921  26.123  23.018   0.422 -0.2314 -0.0210 -0.4372
    1W        W57922  23.547  13.036   1.559  0.0214 -0.1159  0.0502
    1W        W57923   1.518  16.085   9.082 -0.0785  0.1233 -0.1782
    1W        W57924  19.413   4.246   0.855 -0.1635  0.1696  0.0352
    1W        W57925  20.006  23.953   7.919  0.0607  0.2503  0.1313
    1W        W57926   7.056  18.547   8.703  0.1373 -0.1331  0.0082
    1W        W57927  12.487  27.787   2.761  0.0559  0.1048  0.1002
    1W        W57928  29.633   4.916   7.936 -0.3479  0.0882  0.0380
    1W        W57929  20.090  18.651   7.804 -0.0310  0.2528  0.1188
    1W        W57930  13.238   1.771   8.312 -0.0058  0.2622  0.1408
    1W        W57931  21.977  25.197   8.783  0.0598  0.1417 -0.0454
    1W        W57932  28.331  29.325   3.292  0.0324  0.1947 -0.0702
    1W        W57933  26.196  29.734   6.605  0.3293 -0.1025  0.2687
    1W        W57934  12.269  12.325   9.280  0.1462 -0.1603  0.2720
    1W        W57935  15.205   0.391   1.705 -0.1197  0.0297 -0.1775
    1W        W57936  22.278   7.538   9.113  0.3160 -0.1316 -0.0064
    1W        W57937   7.684   6.309   8.842 -0.1583  0.2231  0.0279
    1W        W57938  19.570   2.845   7.916 -0.2148 -0.1519  0.2838
    1W        W57939   3.525   8.722   3.260  0.0653 -0.1347  0.0226
    1W        W57940   6.574  27.702   9.159 -0.1100 -0.0193 -0.1923
    1W        W57941   8.438   2.505   6.972 -0.0544  0.3349 -0.0955
    1W        W57942   7.271  27.808   6.846 -0.0531  0.0076 -0.2582
    1W        W57943  22.237  19.061   6.377  0.0003  0.0295  0.0940
    1W        W57944  16.432  13.278   7.303  0.2654  0.1046 -0.2844
    1W        W57945   7.739  23.660   0.343  0.2433 -0.3804 -0.1273
    1W        W57946  26.690   7.211   1.559 -0.2213 -0.1179  0.2202
    1W        W57947  27.938  20.563   6.225  0.0435  0.1296  0.0047
    1W        W57948  28.005  18.859   1.040 -0.0911 -0.0819  0.1883
    1W        W57949  22.191   3.377   2.414 -0.0253 -0.0084 -0.0826
    1W        W57950  26.229  14.573   8.142  0.1126 -0.0354 -0.1514
    1W        W57951   8.575  16.587   7.645  0.0596  0.0170 -0.0382
    1W        W57952   7.403  14.575   8.395  0.0978  0.0669 -0.1982
    1W        W57953  19.710  19.783   2.086  0.1302  0.0939 -0.2321
    1W        W57954  10.551  27.097   1.078  0.0822 -0.0044  0.1152
    1W        W57955  11.462  25.916   0.228 -0.2728  0.0109 -0.2022
    1W        W57956  25.624   0.174   2.204  0.0946  0.0589  0.2892
    1W        W57957   8.444  21.227   8.391  0.0481 -0.1305 -0.1800
    1W        W57958  20.597   4.368   2.501  0.1258 -0.3830  0.3899
    1W        W57959  11.429  15.006   8.957 -0.1966 -0.0790  0.1080
    1W        W57960  12.921   4.398   2.724 -0.1652 -0.0677  0.2088
    1W        W57961  14.022  15.318   6.689 -0.0170 -0.0380 -0.0317
    1W        W57962   5.944  23.848   8.069  0.0226 -0.1926 -0.4519
    1W        W57963  21.740   4.478   2.173  0.0725  0.1640 -0.0818
    1W        W57964   3.819  10.130   0.406  0.5391 -0.2388  0.2475
    1W        W57965  10.931   2.099   2.518 -0.1998 -0.2207  0.0507
    1W        W57966  16.329  24.251   1.204 -0.2714  0.2004 -0.0706
    1W        W57967   7.635   2.719   2.906  0.1897 -0.1286 -0.0438
    1W        W57968  25.858  29.508   2.687  0.3474  0.0191  0.2475
    1W        W57969  29.652  21.831   8.661  0.0327 -0.0324  0.3294
    1W        W57970  14.661  13.888   7.200 -0.1753  0.2648 -0.0939
    1W        W57971   9.243  25.836   2.364  0.2388  0.0860 -0.1721
    1W        W57972  21.223   8.917   7.347  0.2203 -0.3414 -0.2220
    1W        W57973   9.132  19.377   7.202 -0.0725 -0.0874  0.1878
    1W        W57974   0.939  25.631   1.190 -0.0829 -0.1800 -0.1691
    1W        W57975   6.590  10.515   9.183 -0.0832 -0.1597 -0.1399
    1W        W57976  17.566   6.126   6.532  0.0104  0.1815 -0.3005
    1W        W57977  15.157  13.502   1.599  0.0146 -0.0146  0.3899
    1W        W57978  27.726  21.036   9.094 -0.3311 -0.0491 -0.0410
    1W        W57979   3.609   6.649   0.565  0.0291  0.1476 -0.1692
    1W        W57980   2.951  24.252   0.360 -0.1948  0.0789 -0.2635
    1W        W57981  13.078  15.424   8.523 -0.0330 -0.1623  0.1560
    1W        W57982  29.376  24.891   6.745  0.2063 -0.1275  0.1293
    1W        W57983  11.222  14.560   8.207 -0.2340 -0.0827  0.2255
    1W        W57984  16.010  10.289   8.395 -0.2495  0.2440 -0.2558
    1W        W57985  10.312   6.954   2.839 -0.2263 -0.1437  0.2022
    1W        W57986  28.431   6.676   2.497 -0.2453  0.3509  0.0446
    1W        W57987  11.170  20.900   0.316  0.1659 -0.1442  0.0852
    1W        W57988   0.241  14.033   1.962 -0.1598  0.0418 -0.1037
    1W        W57989  14.473   7.479   7.607 -0.1634  0.0008 -0.1440
    1W        W57990  25.837  13.190   9.117  0.2247  0.1381  0.0555
    1W        W57991  22.233   5.151   1.928  0.1714 -0.1739  0.4501
    1W        W57992   0.968  26.686   6.703 -0.2780 -0.1391  0.0128
    1W        W57993   4.148   3.892   1.613 -0.2253 -0.1863  0.1590
    1W        W57994  21.643  27.775   9.107 -0.0261 -0.1307 -0.3601
    1W        W57995   0.617  26.878   7.853  0.0062 -0.3518 -0.2456
    1W        W57996   3.207   5.935   1.289 -0.2754  0.1301  0.0916
    1W        W57997  20.682  25.590   8.253  0.1801  0.1459  0.1273
    1W        W57998  11.282  10.801   2.551  0.0028 -0.1153 -0.0394
    1W        W57999  27.371  27.111   7.995  0.2145 -0.1126  0.1874
    1W        W58000   0.829  10.606   0.176 -0.0302  0.2718  0.1673
    1W        W58001  18.259  17.225   8.102  0.0079 -0.2644 -0.2445
    1W        W58002  26.065  28.695   7.372  0.1422 -0.0658  0.0423
    1W        W58003  10.181   5.510   8.345  0.2355  0.0175  0.0466
    1W        W58004  12.906   5.622   9.238  0.2105 -0.1216 -0.1633
    1W        W58005  17.315  17.053   8.443  0.0352 -0.0472  0.3202
    1W        W58006   7.787  15.382   1.165 -0.2293  0.0026  0.1235
    1W        W58007  24.197  27.296   8.870 -0.1367 -0.1301  0.0403
    1W        W58008  28.264  23.713   1.854  0.2530  0.0072  0.0421
    1W        W58009  26.602  24.977   8.325 -0.3941 -0.0628 -0.4210
    1W        W58010   0.720  14.933   0.585 -0.1362 -0.3287 -0.0908
    1W        W58011  27.050   2.023   1.171  0.0689 -0.1675  0.0957
    1W        W58012  29.632   0.192   7.057 -0.2235 -0.0162 -0.1165
    1W        W58013   0.420  24.967   8.625  0.3093  0.1224 -0.0932
    1W        W58014   1.013  11.329   6.900 -0.0062 -0.1520 -0.6406
    1W        W58015  18.031  24.492   1.918 -0.1480  0.0575  0.0633
    1W        W58016  16.557   3.463   8.358 -0.0453 -0.2198  0.1747
    1W        W58017  25.250  13.749   6.886  0.0494  0.0928 -0.3045
    1W        W58018  22.150   8.246   7.289  0.1441 -0.0243  0.0202
    1W        W58019   5.518  13.053   0.168  0.0443 -0.1904  0.1037
    1W        W58020  24.114  18.739   7.577 -0.1548 -0.1373 -0.0227
    1W        W58021   1.159  23.619   6.052  0.2798 -0.2203 -0.2607
    1W        W58022  22.472  15.208   7.067 -0.0337 -0.0189  0.2089
    1W        W58023  29.159  23.760   0.307  0.0420 -0.0385 -0.2713
    1W        W58024  12.173   7.046   1.470  0.1088  0.1086 -0.0087
    1W        W58025   5.887  26.195   7.235 -0.2175 -0.0091  0.0688
    1W        W58026  12.978  24.547   7.693  0.0696  0.0131  0.1327
    1W        W58027  10.839   3.780   2.539 -0.2964 -0.1196 -0.1665
    1W        W58028  22.917   1.171   0.158  0.0655 -0.0249  0.1270
    1W        W58029  15.248   6.016   9.089 -0.1940 -0.1977 -0.1541
    1W        W58030   3.661   8.816   0.469  0.0847 -0.0517  0.0773
    1W        W58031   0.952   6.119   8.565 -0.2807  0.0530  0.0087
    1W        W58032  28.755  26.034   1.499  0.2819 -0.0342 -0.2067
    1W        W58033  11.631   6.454   1.906 -0.0081  0.5452  0.0690
    1W        W58034  11.063  20.958   7.721  0.1273 -0.0323  0.2029
    1W        W58035  24.843  26.605   9.201 -0.0819 -0.1296 -0.1680
    1W        W58036  27.800   5.391   6.900  0.0932  0.2317 -0.1255
    1W        W58037  27.740  18.815   1.949  0.2190  0.0532  0.1415
    1W        W58038   0.250  12.663   0.312 -0.2397  0.0094  0.2569
    1W        W58039  22.660  16.443   0.731  0.0093 -0.1255  0.2672
    1W        W58040  15.171   3.796   7.801  0.0368  0.0201 -0.1479
    1W        W58041  24.321   2.173   9.306 -0.0744 -0.3032  0.0096
    1W        W58042  14.131  17.584   7.190 -0.0553 -0.2008  0.0694
    1W        W58043  16.978  28.816   2.137 -0.1769 -0.0764 -0.2105
    1W        W58044  28.069  12.935   6.578  0.5151  0.0286 -0.1323
    1W        W58045  14.868   7.660   9.004 -0.1787 -0.0879 -0.2572
    1W        W58046  26.214  26.543   9.432  0.1815  0.2771 -0.0010
    1W        W58047  27.178  23.368   7.383  0.1899 -0.2751  0.1312
    1W        W58048  10.588  22.573   1.614 -0.0015 -0.0150 -0.1628
    1W        W58049  14.501  24.917   1.066  0.3380 -0.0548  0.0405
    1W        W58050   7.916  18.721   2.412 -0.0565 -0.0839 -0.1851
    1W        W58051  18.291  15.210   6.501 -0.0759  0.2782  0.3638
    1W        W58052  15.304   0.881   8.358 -0.2537 -0.1048  0.1487
    1W        W58053  18.835  15.966   8.669  0.2480  0.1079  0.1841
    1W        W58054  16.389   8.488   1.732  0.1652 -0.0690  0.1449
    1W        W58055  17.800   3.420   2.015  0.0067 -0.1648 -0.0254
    1W        W58056  16.939   1.288   9.177 -0.2096  0.1236  0.2772
    1W        W58057  13.066  12.060   1.685 -0.0628  0.3469 -0.0104
    1W        W58058  21.467   0.957   9.409  0.1467 -0.3499  0.3588
    1W        W58059   8.997   6.280   8.409  0.1264 -0.1616  0.2353
    1W        W58060  26.280  26.062   1.939  0.3629  0.0836  0.1876
    1W        W58061   1.486  24.995   1.529 -0.0163 -0.2828 -0.2826
    1W        W58062  29.536   0.143   8.874 -0.1882  0.1228 -0.1745
    1W        W58063  13.567  27.369   2.961 -0.1433 -0.5855 -0.1906
    1W        W58064  25.380  14.192   7.161 -0.0179  0.1081  0.4928
    1W        W58065   9.580  25.323   8.136  0.1452  0.3732 -0.0358
    1W        W58066  20.034  20.750   0.981 -0.0462  0.2753 -0.1449
    1W        W58067   8.176   7.063   7.857  0.0836  0.0827  0.2302
    1W        W58068   2.162  16.921   7.258 -0.0408 -0.2294  0.1116
    1W        W58069  14.262  19.678   1.255 -0.0697  0.1160 -0.0495
    1W        W58070   6.722   8.292   1.740 -0.0867 -0.2005  0.0401
    1W        W58071   1.660  27.538   9.382  0.4442  0.2721  0.1278
    1W        W58072  27.125  18.519   0.037  0.3003  0.1059 -0.0665
    1W        W58073  24.932  27.022   8.808  0.1817  0.0239 -0.1832
    1W        W58074  22.299   8.049   1.039  0.1088 -0.1631 -0.1079
    1W        W58075  16.690   2.187   2.607  0.0208  0.2479 -0.1138
    1W        W58076   4.538  15.729   7.620 -0.0578  0.0381 -0.3737
    1W        W58077  27.018  17.350   0.978  0.3078 -0.0217  0.2063
    1W        W58078  18.816   3.774   6.905  0.1048 -0.0385  0.0900
    1W        W58079   0.935   7.207   0.163  0.0834  0.0471 -0.1302
    1W        W58080  11.434  28.643   2.977 -0.0648  0.3368  0.2807
    1W        W58081  18.808   1.191   2.291 -0.2448  0.3235 -0.3615
    1W        W58082   1.461  16.736   0.275  0.1225  0.1072 -0.0003
    1W        W58083  23.505   5.663   2.219 -0.2962 -0.1408  0.0211
    1W        W58084  23.053   2.412   0.871  0.0765 -0.2605  0.1733
    1W        W58085  12.180   7.166   2.447  0.1854  0.0302 -0.0848
    1W        W58086   8.517  29.623   7.295  0.4761 -0.0329  0.1630
    1W        W58087   7.255   0.204   1.972 -0.0694 -0.1349 -0.1073
    1W        W58088   5.840  14.332   2.377 -0.1767  0.1288  0.1923
    1W        W58089  19.490  25.098   8.086  0.0749  0.2283  0.0211
    1W        W58090  27.920  12.728   7.894 -0.1173 -0.0914 -0.1625
    1W        W58091  13.388  15.113   8.220  0.1207  0.0168  0.0946
    1W        W58092   6.365  13.810   3.417 -0.0110  0.2825 -0.0133
    1W        W58093  23.289   4.099   7.469  0.1543  0.3556 -0.1680
    1W        W58094  19.467  25.365   8.830 -0.0297 -0.2291 -0.0602
    1W        W58095  14.701  28.730   7.230  0.1228 -0.2466 -0.0038
    1W        W58096  13.898   4.302   2.192 -0.1494 -0.1816  0.0527
    1W        W58097   4.454   7.270   2.632  0.2319  0.1394  0.0785
    1W        W58098  28.946  14.155   0.866 -0.0962  0.0851 -0.0158
    1W        W58099   0.074  22.333   6.304 -0.1046  0.2747 -0.0997
    1W        W58100   5.285  13.785   8.606 -0.2427 -0.0393 -0.3509
    1W        W58101   1.998  18.208   8.271  0.0506  0.0345 -0.0092
    1W        W58102  20.942  16.957   8.262  0.0064  0.0543 -0.2781
    1W        W58103   5.627   1.435   0.083  0.0956 -0.0405 -0.3371
    1W        W58104  14.679   8.551   1.546 -0.1168 -0.0104 -0.2071
    1W        W58105   2.894   0.559   8.243 -0.2951 -0.1634 -0.1167
    1W        W58106  27.350   5.100   6.864  0.2306 -0.1771 -0.1224
    1W        W58107  25.337  11.876   1.962 -0.0909  0.0582 -0.1398
    1W        W58108  27.763  23.831   7.856  0.0322  0.0775  0.0459
    1W        W58109  22.770  19.001   7.618 -0.2158 -0.3490 -0.2539
    1W        W58110   1.407  11.133   7.106 -0.0120 -0.0038 -0.1166
    1W        W58111  17.514  16.275   7.065 -0.0511 -0.0188  0.3491
    1W        W58112  27.915   0.374   6.764  0.1085  0.5767 -0.1114
    1W        W58113   3.091  23.866   0.664 -0.0222  0.3173  0.1667
    1W        W58114  23.096   4.538   7.280 -0.0555 -0.1439 -0.0675
    1W        W58115  25.101  21.661   3.199 -0.0010  0.0182 -0.1243
    1W        W58116  22.127   7.165   8.255  0.0981 -0.3287  0.0791
    1W        W58117  16.793  11.201   7.213  0.1385 -0.2040  0.3246
    1W        W58118   5.030   2.462   2.478 -0.1129  0.0775 -0.0300
    1W        W58119   4.854   6.012   1.989  0.0232  0.1063 -0.1771
    1W        W58120   2.599   4.634   7.262  0.0524  0.1089  0.3508
    1W        W58121   4.408   9.660   8.395  0.0279 -0.2258  0.1518
    1W        W58122  15.502  15.741   7.688  0.2293  0.1623  0.0314
    1W        W58123  17.755   8.469   9.037  0.0723 -0.2399 -0.1425
    1W        W58124  25.655  18.943   2.147 -0.1554 -0.0026 -0.1803
    1W        W58125  25.187   3.847   1.314  0.0111 -0.0221  0.0082
    1W        W58126  14.531   2.508   9.297  0.0624 -0.0843  0.1975
    1W        W58127  19.435  25.008   1.213 -0.2837 -0.2464 -0.0648
    1W        W58128  23.405  14.326   2.041  0.0411  0.1128  0.2856
    1W        W58129  14.768  22.728   6.752  0.0756  0.2532  0.2699
    1W        W58130   3.767   7.173   1.943 -0.2062 -0.0617  0.2010
    1W        W58131  24.665  12.221   7.514  0.3326 -0.2161 -0.3227
    1W        W58132   7.057  11.094   0.937  0.1798  0.0373  0.1319
    1W        W58133   8.037  13.139   7.389  0.3141  0.0097 -0.1164
    1W        W58134   0.240   6.650   6.053  0.2507  0.1595  0.2424
    1W        W58135  22.363  10.049   6.852  0.1731  0.0314  0.3855
    1W        W58136  23.425  20.259   1.906  0.3073 -0.0640  0.1639
    1W        W58137  28.286  25.129   7.180 -0.2013 -0.0762  0.2070
    1W        W58138  10.509  24.579   1.704 -0.2267  0.2672 -0.2372
    1W        W58139   4.053   9.659   0.622 -0.2424 -0.2146 -0.0492
    1W        W58140  17.377  29.049   1.515  0.0725  0.1574 -0.0394
    1W        W58141  14.373  24.018   7.055 -0.3988 -0.0380  0.1013
    1W        W58142  24.138   4.179   8.993 -0.2437  0.1347 -0.2137
    1W        W58143   5.943   2.995   0.438 -0.0339 -0.0809  0.0633
    1W        W58144   0.922  25.846   6.724  0.0159  0.0332 -0.1233
    1W        W58145  11.785   0.207   7.346 -0.0878  0.1046 -0.1745
    1W        W58146  14.293   8.001   7.386 -0.2938 -0.0565  0.2214
    1W        W58147  29.379  20.922   0.305  0.0006  0.0537 -0.0625
    1W        W58148  22.712   2.543   2.102 -0.0429 -0.1045  0.0799
    1W        W58149  27.606  29.497   9.186  0.0997 -0.0422 -0.1307
    1W        W58150  23.561   6.160   2.629 -0.2288 -0.1457  0.1891
    1W        W58151  22.581   8.606   6.171 -0.0042  0.3128  0.1343
    1W        W58152   9.387  28.059   2.236  0.0400  0.0219 -0.1130
    1W        W58153   7.463  27.926   0.098 -0.1042 -0.2100  0.0073
    1W        W58154   2.572   5.327   1.430  0.1129 -0.0034 -0.1963
    1W        W58155   5.361  15.004   6.386 -0.2086  0.1002  0.0100
    1W        W58156  10.771   0.150   7.773  0.3115 -0.3347 -0.0180
    1W        W58157   2.033  13.128   8.660  0.0671  0.1767  0.1243
    1W        W58158  27.126  24.749   6.557  0.0688 -0.1011 -0.0591
    1W        W58159  17.220  17.659   9.451 -0.0811  0.0803 -0.0833
    1W        W58160   9.072  13.063   8.147 -0.2540 -0.0412  0.3689
    1W        W58161   5.594  18.967   7.336 -0.4589 -0.3844  0.0230
    1W        W58162  29.375  18.169   1.031 -0.3877  0.0474 -0.0853
    1W        W58163  18.977  21.018   2.498 -0.0055 -0.0128  0.1540
    1W        W58164  10.243  16.874   8.154 -0.2014 -0.0027  0.1280
    1W        W58165  24.869  17.496   0.140  0.1756  0.1373  0.1483
    1W        W58166   8.188  13.112   1.842 -0.3611 -0.3024 -0.0512
    1W        W58167  27.415  28.866   1.065 -0.1280  0.1544 -0.1656
    1W        W58168   6.043   5.703   2.784 -0.1927 -0.1219  0.1120
    1W        W58169   3.070  13.835   6.263 -0.0382  0.2035 -0.0768
    1W        W58170  11.651  12.114   1.474 -0.1130 -0.2349  0.0151
    1W        W58171   0.859  15.122   8.230  0.2276 -0.0166  0.0152
    1W        W58172  24.189  24.209   9.054  0.1435 -0.0684 -0.1824
    1W        W58173  20.785  12.962   0.616  0.1604 -0.2097  0.0644
    1W        W58174  16.241   6.231   7.625 -0.0763  0.0949 -0.0170
    1W        W58175  23.215   1.641   1.633 -0.1613  0.2523  0.1123
    1W        W58176  29.536   1.095   1.520 -0.0077 -0.0771  0.3602
    1W        W58177  24.864   2.993   7.610  0.1844  0.0106  0.2515
    1W        W58178  18.991  16.378   7.107  0.2572 -0.1506  0.3029
    1W        W58179  12.963  16.562   1.311  0.0634 -0.0081  0.0672
    1W        W58180  22.871  21.827   7.991  0.0924  0.0635  0.1224
    1W        W58181  29.242  25.962   8.923  0.5223  0.0006  0.0660
    1W        W58182   7.575  23.934   5.821  0.1812  0.2794  0.0817
    1W        W58183   3.160   2.639   8.949  0.0289 -0.1495  0.0236
    1W        W58184  15.067  22.787   1.509 -0.1562 -0.2630 -0.0078
    1W        W58185   4.941   2.346   7.837  0.1527 -0.0395  0.1284
    1W        W58186  28.448  24.299   1.300 -0.3237 -0.1943  0.0152
    1W        W58187  13.133   3.584   8.289  0.0054  0.3443  0.3511
    1W        W58188  25.353  19.739   0.973  0.0462 -0.1905 -0.2805
    1W        W58189  20.803  20.107   2.386 -0.1483 -0.1052 -0.0407
    1W        W58190  13.390   6.291   3.204  0.1172  0.1006  0.0532
    1W        W58191  13.451  11.094   2.122  0.0804  0.1526  0.1396
    1W        W58192  15.449  21.509   1.290 -0.0182  0.1895  0.1480
    1W        W58193  21.206   2.257   1.979 -0.2619  0.1916 -0.1158
    1W        W58194   0.001  17.087   2.317 -0.1425 -0.1438 -0.0118
    1W        W58195  17.576  14.625   0.576 -0.1810  0.0610 -0.2486
    1W        W58196  15.926  18.421   2.133  0.0233  0.0329 -0.1307
    1W        W58197  12.053   6.456   2.208  0.1735  0.1975  0.0169
    1W        W58198  25.544  22.504   2.501 -0.3061 -0.1510 -0.0359
    1W        W58199  20.994  24.922   0.445 -0.4850  0.1142 -0.0162
    1W        W58200   3.940  16.761   7.312  0.0197 -0.1580  0.0247
    1W        W58201  27.004   6.323   1.471 -0.5201 -0.1841  0.1086
    1W        W58202  22.034  15.068   9.459  0.0693 -0.4737  0.1573
    1W        W58203  14.442   1.990   9.200  0.0465  0.5012 -0.1547
    1W        W58204  10.222  24.162   2.746  0.0298  0.1961 -0.0998
    1W        W58205  11.717  27.533   1.907  0.3361 -0.2037  0.3383
    1W        W58206  12.983   9.501   1.442  0.1573 -0.1521  0.0660
    1W        W58207  14.890   3.223   9.134 -0.0180 -0.3407  0.1349
    1W        W58208  14.406  15.601   0.032  0.1806 -0.3048 -0.2120
    1W        W58209   3.913  25.318   9.419 -0.3917  0.1496 -0.0706
    1W        W58210  26.511  19.087   7.774  0.0519 -0.2476 -0.0300
    1W        W58211   9.686  29.474   8.761 -0.0918  0.0870 -0.2745
    1W        W58212   4.827   4.908   8.814  0.0982 -0.1331 -0.2228
    1W        W58213   8.155   2.980   2.114 -0.1455 -0.2248 -0.0467
    1W        W58214  19.793   6.339   2.046 -0.1365  0.1779  0.3516
    1W        W58215   8.081  16.290   1.583 -0.0333 -0.0356  0.1632
    1W        W58216   9.149  25.108   8.002  0.0198  0.0487  0.1768
    1W        W58217  19.721   5.180   7.695 -0.0109 -0.4619 -0.3960
    1W        W58218  18.141  11.890   8.890  0.1281 -0.1512 -0.2557
    1W        W58219  18.801  11.102   0.394  0.5317 -0.1546  0.0209
    1W        W58220   7.336  15.905   6.395  0.0781 -0.0639  0.2156
    1W        W58221  28.928   2.938   1.665  0.2389  0.2244  0.0729
    1W        W58222   1.065   2.670   0.405  0.0220 -0.0830  0.1581
    1W        W58223  22.019  25.279   1.989  0.0208  0.0831 -0.1352
    1W        W58224  16.068  24.879   0.349  0.0167 -0.1466 -0.2931
    1W        W58225  19.404  21.542   7.832  0.2140  0.0851 -0.0532
    1W        W58226  17.704   8.354   0.315 -0.3263 -0.0334 -0.1420
    1W        W58227  25.694   5.171   0.069  0.2158  0.1953  0.5424
    1W        W58228  12.255  21.763   7.914  0.1340 -0.1340  0.2074
    1W        W58229   4.864  14.351   0.316  0.2225  0.0559  0.0548
    1W        W58230   5.969   6.687   1.536 -0.2707 -0.0244  0.0567
    1W        W58231   2.969   4.798   1.428 -0.2122  0.0110 -0.0603
    1W        W58232  24.667   0.030   1.229  0.1267  0.0754  0.1397
    1W        W58233  19.221   5.809   6.995  0.1866  0.0763  0.1964
    1W        W58234   5.708  18.386   8.279  0.1257 -0.0518 -0.0632
    1W        W58235  16.828   5.345   8.499 -0.1345 -0.0935  0.1558
    1W        W58236   7.439   1.147   7.915  0.0942  0.0443 -0.3603
    1W        W58237  14.066  23.376   6.393 -0.0329 -0.0523 -0.3153
    1W        W58238   5.561   7.421   1.239 -0.0769 -0.0272  0.3149
    1W        W58239  18.679  18.314   7.700 -0.0706 -0.0699 -0.1020
    1W        W58240  17.257   0.183   2.080  0.0393 -0.0442  0.3677
    1W        W58241  17.355   0.216   6.824  0.2189 -0.2171  0.1372
    1W        W58242  10.756  25.645   9.110 -0.0913  0.1673  0.1060
    1W        W58243  21.281  29.531   7.908 -0.3648  0.0965 -0.0531
    1W        W58244   8.693   2.115   1.980  0.1829 -0.1154  0.1692
    1W        W58245  24.078   0.868   0.004 -0.1052  0.2111  0.0418
    1W        W58246   4.254  10.143   8.467  0.4054 -0.2121 -0.0948
    1W        W58247  22.070  11.240   1.287 -0.0987 -0.1877 -0.1273
    1W        W58248  27.768   9.573   6.725 -0.0803 -0.2583  0.2691
    1W        W58249  10.403  19.742   7.739 -0.0070 -0.2410 -0.3062
    1W        W58250  10.625  22.003   8.332  0.3673  0.2942 -0.0216
    1W        W58251  13.517  17.167   8.298  0.1711 -0.0020 -0.1062
    1W        W58252  19.054   5.227   8.635 -0.0608  0.1896  0.1713
    1W        W58253   6.115  11.845   0.763 -0.0745 -0.0809 -0.2270
    1W        W58254   7.821  26.135   3.139  0.1987  0.2181  0.1852
    1W        W58255  20.130  17.396   2.005 -0.2131 -0.1325 -0.1385
    1W        W58256  10.700  24.153   7.114  0.2278  0.0678 -0.0063
    1W        W58257   2.816  19.455   6.570 -0.1150 -0.0612 -0.0086
    1W        W58258  14.862  28.940   2.568 -0.1932 -0.2945  0.2012
    1W        W58259  12.515   7.108   0.458  0.0440  0.1558 -0.0797
    1W        W58260   1.717  26.228   2.297  0.0430 -0.1434  0.0347
    1W        W58261   3.946  12.269   7.778 -0.0338  0.0575  0.2206
    1W        W58262  28.818  11.160   8.245  0.2578 -0.0826 -0.0566
    1W        W58263  25.633   5.924   1.468  0.4402 -0.1535 -0.0274
    1W        W58264   8.359  19.698   6.418 -0.1180 -0.2475 -0.0188
    1W        W58265  29.359  14.394   1.685 -0.0623 -0.2301 -0.1021
    1W        W58266  27.542  12.899   2.076 -0.0562 -0.1384 -0.2261
    1W        W58267  17.376   1.813   2.923  0.1689  0.2473  0.1491
    1W        W58268  14.198  27.844   1.824 -0.1974  0.1854  0.2076
    1W        W58269  22.665  23.908   3.098 -0.2987 -0.0702  0.1874
    1W        W58270  23.691  24.836   1.204  0.1158  0.0249  0.1098
    1W        W58271  23.988  28.914   8.362  0.0511  0.1437  0.0417
    1W        W58272  23.184  18.747   1.809  0.3855  0.1014  0.0686
    1W        W58273  21.484  13.840   1.218 -0.1970  0.2448  0.0618
    1W        W58274   8.310  20.370   1.468  0.1350 -0.2795 -0.0048
    1W        W58275   8.720   2.840   8.557 -0.3811 -0.1035  0.2796
    1W        W58276  21.150   2.874   1.439 -0.1107  0.0802 -0.2987
    1W        W58277  12.872  27.364   1.055 -0.1244 -0.2798  0.3314
    1W        W58278   9.800  27.287   8.196  0.3569  0.1179  0.4375
    1W        W58279   0.086  16.238   6.912  0.2075  0.0644  0.3397
    1W        W58280  14.817   5.657   2.335  0.1633  0.2178 -0.1739
    1W        W58281  13.542   2.923   0.451 -0.2336 -0.2950 -0.0901
    1W        W58282  26.762  22.422   8.634 -0.1344  0.0367  0.0123
    1W        W58283  17.482  28.840   7.562  0.1381 -0.0688  0.0423
    1W        W58284  17.561   3.092   8.103  0.0923 -0.1120 -0.1352
    1W        W58285  28.436  15.461   0.827 -0.4480 -0.0926 -0.0992
    1W        W58286   6.672  12.228   9.076 -0.4732  0.0028  0.1667
    1W        W58287   2.461  23.512   7.185  0.1706 -0.3746  0.1299
    1W        W58288  27.963  14.887   6.103 -0.1386  0.2183  0.1917
    1W        W58289   3.368   1.378   1.739 -0.0096  0.1314  0.0213
    1W        W58290   9.572   9.013   2.007 -0.0466 -0.2415  0.2628
    1W        W58291  13.946  21.123   1.108 -0.0941 -0.0772  0.1260
    1W        W58292   3.705   2.914   6.453 -0.0585 -0.1634 -0.0019
    1W        W58293  20.803   8.369   0.580 -0.1132  0.0562  0.1616
    1W        W58294   5.638  21.999   7.525 -0.4466 -0.0931  0.3754
    1W        W58295  19.266  26.789   1.088  0.1550  0.1357  0.0251
    1W        W58296  25.728  14.899   5.836  0.0271 -0.1415  0.0139
    1W        W58297  20.396  25.383   7.932 -0.1318 -0.0595 -0.1053
    1W        W58298   4.586  13.686   0.103 -0.1724  0.1483  0.1353
    1W        W58299  29.016  27.039   7.142 -0.2443 -0.0426 -0.1887
    1W        W58300   8.249  15.799   1.574  0.1120  0.2610 -0.4666
    1W        W58301  25.483  17.155   1.325 -0.1742  0.2606 -0.0678
    1W        W58302   8.851   5.691   2.281 -0.2229 -0.1234 -0.0590
    1W        W58303  17.031  27.590   7.629 -0.2925  0.0916 -0.1312
    1W        W58304   8.485   7.693   1.016  0.1597 -0.0307 -0.2017
    1W        W58305   5.966   3.790   1.688 -0.1509  0.0951  0.1527
    1W        W58306  12.491   1.156   1.713  0.0035 -0.1591  0.3811
    1W        W58307  15.823   9.823   0.166 -0.3072  0.0514 -0.0521
    1W        W58308  25.390   8.822   2.208 -0.0289  0.0106 -0.2582
    1W        W58309   0.892  19.838   7.591 -0.0614 -0.2617 -0.0561
    1W        W58310   6.939  29.684   8.057 -0.0521 -0.0053  0.1407
    1W        W58311   9.668  27.532   9.390 -0.1413  0.0233 -0.1135
    1W        W58312   8.776   0.143   3.431 -0.0328 -0.1210 -0.0237
    1W        W58313  25.838   6.377   2.564 -0.1574  0.1354 -0.0870
    1W        W58314  13.793  27.217   1.777  0.0158 -0.1407 -0.1369
    1W        W58315   7.613   4.600   7.371  0.0346  0.2107 -0.0644
    1W        W58316   9.537  21.954   8.338 -0.3188 -0.1805 -0.0922
    1W        W58317  10.952  27.437   7.258  0.1100  0.3004 -0.1220
    1W        W58318  15.229   2.831   8.933 -0.0293 -0.3588  0.3245
    1W        W58319  28.279   8.882   7.515 -0.2332  0.0418 -0.1558
    1W        W58320  13.448   4.237   0.146 -0.0366 -0.0849 -0.0138
    1W        W58321   8.492  11.548   8.420  0.0608  0.0855 -0.0685
    1W        W58322   2.804  17.943   8.041  0.0704 -0.0692  0.0243
    1W        W58323  29.468  10.098   2.335 -0.1834 -0.3135  0.1222
    1W        W58324   3.023   1.529   8.547 -0.0179 -0.1590  0.0053
    1W        W58325  20.654  24.818   7.763 -0.1665  0.4362  0.0866
    1W        W58326  14.437  19.699   1.697  0.2357  0.1444  0.3606
    1W        W58327  28.010  27.307   1.229  0.3420 -0.1556  0.1648
    1W        W58328   3.891  29.186   8.596  0.2057  0.0015 -0.1172
    1W        W58329  27.943  27.941   2.137 -0.1729  0.1725  0.0892
    1W        W58330  13.485  26.373   2.117 -0.1013 -0.1070  0.0492
    1W        W58331  15.835  29.709   3.215  0.1744 -0.0172 -0.0531
    1W        W58332  10.075  15.898   0.084  0.3740 -0.0172 -0.1187
    1W        W58333   9.980  22.926   8.373 -0.0614  0.0463 -0.3668
    1W        W58334   7.581  21.670   8.360 -0.0847  0.2095  0.1722
    1W        W58335  20.090  22.537   7.065 -0.2891  0.1873 -0.3715
    1W        W58336  14.441  17.662   0.296  0.0960 -0.0486 -0.0567
    1W        W58337  10.034  27.075   2.185  0.2324  0.1520  0.1280
    1W        W58338   1.643  15.705   7.434  0.2323 -0.0700  0.0959
    1W        W58339  12.960   7.680   2.332 -0.0748  0.0454  0.0790
    1W        W58340  23.637  13.376   6.079 -0.1453  0.0279  0.0548
    1W        W58341   6.533  18.981   1.036  0.0850 -0.2186  0.3465
    1W        W58342   7.417  20.051   8.884  0.3011  0.1185  0.0251
    1W        W58343   3.974  15.431   1.608  0.1766 -0.4128  0.0403
    1W        W58344   7.710  23.988   6.287 -0.0629 -0.0915 -0.0056
    1W        W58345  19.999   8.423   8.774 -0.2635 -0.0674  0.0304
    1W        W58346  28.445  19.923   8.234  0.1236  0.0505 -0.1205
    1W        W58347   5.074  23.222   1.522  0.0618 -0.0766 -0.1020
    1W        W58348  15.021  22.967   1.972 -0.1198 -0.2199 -0.2425
    1W        W58349  15.392  11.006   8.096 -0.2927 -0.1474 -0.3937
    1W        W58350  27.089   2.729   0.732  0.0744  0.3227  0.0709
    1W        W58351   7.661  26.915   0.720  0.1412  0.0679 -0.0472
    1W        W58352  15.164   7.966   2.993 -0.4138 -0.0521  0.2484
    1W        W58353  29.047  19.245   7.502 -0.0716  0.1467  0.3545
    1W        W58354   3.668  29.651   6.145 -0.3420  0.0667  0.0687
    1W        W58355  15.434  12.416   0.096  0.1103 -0.2012  0.3054
    1W        W58356  11.302  22.759   0.811  0.0031 -0.4574  0.0054
    1W        W58357   6.364   9.113   0.261 -0.0070 -0.0142  0.2336
    1W        W58358   0.712  15.567   1.721  0.0539  0.0682 -0.2407
    1W        W58359  21.113  25.822   7.888  0.0306  0.0988 -0.2670
    1W        W58360  14.227  28.287   3.023 -0.0311  0.0955  0.1684
    1W        W58361  11.109   6.126   9.031  0.1976  0.0497 -0.5732
    1W        W58362  25.784   8.155   1.617 -0.0303  0.1061  0.0856
    1W        W58363  10.581   9.025   0.071 -0.2472 -0.1073 -0.0081
    1W        W58364  18.082  22.456   2.401  0.0289 -0.0049  0.0731
    1W        W58365   5.269  15.991   2.385  0.0227 -0.2144 -0.4086
    1W        W58366  21.769  23.458   7.729 -0.0611  0.0960 -0.2242
    1W        W58367  11.173  24.448   9.444  0.2230 -0.2572  0.3898
    1W        W58368   6.928   6.219   2.357  0.1194  0.0789 -0.2343
    1W        W58369  20.229  26.484   9.365 -0.1214 -0.1590  0.1108
    1W        W58370  25.273   5.605   1.267  0.0779 -0.1819  0.0697
    1W        W58371  21.801   5.746   1.423 -0.0042 -0.2423  0.2047
    1W        W58372  23.924  10.310   0.293 -0.1088  0.0437 -0.3943
    1W        W58373  25.975  14.405   7.201 -0.1876  0.0792  0.0541
    1W        W58374  28.306  14.143   9.048  0.0587  0.1013 -0.2250
    1W        W58375  26.626   4.458   7.019  0.0721 -0.0122 -0.0301
    1W        W58376  18.283   3.448   6.273  0.2173 -0.1922  0.1188
    1W        W58377  18.182  24.539   7.215  0.0098  0.0980 -0.1442
    1W        W58378  10.343   8.332   2.739 -0.4543 -0.0230 -0.0497
    1W        W58379   7.533   2.497   9.134 -0.0207 -0.0166  0.0041
    1W        W58380   0.243   7.420   7.201 -0.1642 -0.1701  0.3112
    1W        W58381   2.234  12.163   5.880 -0.3225 -0.1256  0.0384
    1W        W58382  19.201  17.365   6.879 -0.0805  0.0077  0.0425
    1W        W58383  10.033  28.215   7.896  0.5059  0.2165  0.0573
    1W        W58384  18.053  26.530   0.895 -0.0036 -0.1223  0.0452
    1W        W58385  24.007  14.718   1.346  0.3660 -0.0817 -0.0738
    1W        W58386   3.310   9.847   2.197  0.0487  0.1245  0.0373
    1W        W58387   8.684  29.788   8.505  0.1654  0.3897 -0.0913
    1W        W58388   6.674   8.251   4.003 -0.1339  0.1028  0.0379
    1W        W58389  22.184  14.788   1.361 -0.2747  0.0690  0.0403
    1W        W58390   4.242  11.855   8.204  0.1253 -0.0807  0.1118
    1W        W58391   3.146  26.974   6.268  0.1501  0.3814 -0.0664
    1W        W58392   7.027  21.989   9.323 -0.1334  0.0819 -0.2512
    1W        W58393   2.705   7.457   1.742  0.1840  0.2509 -0.2140
    1W        W58394  11.207   2.039   7.752 -0.0890 -0.1700  0.1071
    1W        W58395  22.798  19.911   8.426 -0.2313  0.0033  0.0192
    1W        W58396  29.219   2.309   2.148 -0.0209  0.1794  0.0992
    1W        W58397  24.415  28.666   8.191 -0.0767 -0.0922  0.0087
    1W        W58398  16.655   7.122   1.490  0.0298 -0.0669 -0.3012
    1W        W58399  21.095  20.785   0.276  0.1001  0.2846 -0.0067
    1W        W58400  14.142  15.188   9.289 -0.0474 -0.0135 -0.0167
    1W        W58401   5.218  21.313   8.821 -0.1220  0.0617  0.4335
    1W        W58402  26.839   5.001   6.876  0.0698 -0.1568 -0.1992
    1W        W58403  23.619  11.269   1.831  0.0760  0.0908 -0.0877
    1W        W58404  22.998  25.687   7.085  0.0909 -0.0252 -0.1090
    1W        W58405  13.020  26.105   7.016  0.0438 -0.2563 -0.1336
    1W        W58406   1.700  24.771   0.588 -0.0865  0.0927  0.1393
    1W        W58407  25.435  16.480   6.955  0.1660  0.0250  0.0036
    1W        W58408  28.859   4.011   7.414  0.0861  0.1758 -0.0965
    1W        W58409  16.403   9.721   9.015  0.3190 -0.2742 -0.0492
    1W        W58410   4.811  19.793   7.485  0.0641  0.0057  0.1591
    1W        W58411  29.628  16.815   5.838 -0.0543  0.1431  0.0315
    1W        W58412   9.795  10.155   8.900 -0.1110  0.1540  0.3496
    1W        W58413   1.173  14.904   0.777 -0.1739 -0.3532  0.1657
    1W        W58414  25.284  24.109   1.840 -0.2620 -0.0762 -0.0410
    1W        W58415  27.972   1.589   7.514 -0.1915 -0.4375  0.2271
    1W        W58416  22.336  26.138   1.823 -0.0276  0.2251  0.1732
    1W        W58417   2.845   4.240   8.952  0.2039 -0.1397 -0.0381
    1W        W58418  17.065  14.553   7.953 -0.1535  0.1083  0.0090
    1W        W58419  27.065  18.296   1.083 -0.0924  0.1598  0.3515
    1W        W58420   5.971  15.419   7.886 -0.2366  0.1208  0.1659
    1W        W58421  27.634   6.456   6.897 -0.1043 -0.1983 -0.1414
    1W        W58422  17.336  25.248   2.719 -0.1323  0.1903 -0.1462
    1W        W58423  19.153   1.872   7.733 -0.1929 -0.1775 -0.1574
    1W        W58424  21.268  19.114   0.994  0.2755  0.2725  0.0670
    1W        W58425  16.351   2.068   7.256 -0.2433  0.2937  0.0151
    1W        W58426  13.265   2.305   8.177  0.0425  0.0294  0.2762
    1W        W58427   1.711   8.573   6.883  0.2381 -0.1977 -0.0094
    1W        W58428   5.859   9.020   2.477 -0.0018  0.4806 -0.1209
    1W        W58429  12.712  26.224   1.192  0.0306 -0.2434  0.4609
    1W        W58430   0.520  11.940   7.752 -0.0072  0.4622  0.1867
    1W        W58431  13.714   0.904   2.462  0.0450  0.1753 -0.3403
    1W        W58432   5.520  24.192   6.818 -0.3076 -0.1503  0.3593
    1W        W58433  24.673   1.957   2.815  0.0113 -0.1652 -0.1489
    1W        W58434  10.854   0.346   2.726 -0.0829  0.0880 -0.1164
    1W        W58435  26.278  16.900   1.437  0.1849 -0.2073 -0.0561
    1W        W58436  18.336  14.610   9.416 -0.3708  0.1082  0.3208
    1W        W58437  26.824  14.294   1.919  0.0635 -0.1242 -0.1662
    1W        W58438  11.281  28.743   1.528 -0.3285  0.0754 -0.5023
    1W        W58439  22.197  15.122   7.930  0.0569  0.4540  0.3722
    1W        W58440   5.985   9.353   0.516 -0.3820 -0.1078 -0.1391
    1W        W58441  18.718   6.154   8.464  0.1055 -0.1519 -0.0698
    1W        W58442  26.289   3.775   2.570  0.0960  0.0204  0.1344
    1W        W58443  15.522  13.172   7.399  0.3594  0.2723  0.1909
    1W        W58444  16.485   6.070   7.185  0.0203 -0.2003  0.2007
    1W        W58445  28.790  28.640   1.629 -0.1556  0.0782 -0.1012
    1W        W58446  29.137  28.632   0.235  0.0218  0.2956  0.0939
    1W        W58447  14.544  17.064   1.429  0.2186 -0.0388  0.0743
    1W        W58448  22.604  28.041   0.429  0.0598  0.0540 -0.0750
    1W        W58449  21.656  25.904   0.657  0.0740 -0.1417 -0.3436
    1W        W58450  28.072   8.343   7.609 -0.0138  0.0301  0.4251
    1W        W58451  24.148  26.554   1.731 -0.0408 -0.1687 -0.0199
    1W        W58452  11.826   4.713   0.651 -0.1173 -0.0711 -0.1566
    1W        W58453  23.679  16.876   0.868  0.0351 -0.1649 -0.0140
    1W        W58454  22.334  16.491   1.183 -0.0361 -0.0916  0.2913
    1W        W58455  21.889   0.678   7.687 -0.1274  0.0835 -0.0176
    1W        W58456   6.198  20.394   2.135 -0.1892 -0.1134 -0.0802
    1W        W58457   2.035  10.327   9.075 -0.1390 -0.1617 -0.2865
    1W        W58458  24.521  21.913   7.474  0.0525  0.1525  0.3893
    1W        W58459  28.607  28.147   1.629  0.3132  0.3494 -0.1891
    1W        W58460  13.018   5.097   2.371 -0.0238 -0.2096 -0.0779
    1W        W58461  17.487  23.068   1.724 -0.1742  0.0001 -0.0808
    1W        W58462  27.499  20.589   2.687 -0.1592 -0.0718 -0.2730
    1W        W58463   3.293  17.455   1.616  0.1535 -0.2200 -0.0835
    1W        W58464  20.341   2.298   3.565 -0.0478  0.2083 -0.1292
    1W        W58465   6.438  23.936   0.567  0.1075 -0.5643  0.0120
    1W        W58466  26.727  10.927   7.000  0.0122  0.0403 -0.1630
    1W        W58467  29.075  18.176   9.088 -0.0182 -0.1379  0.0174
    1W        W58468   6.016  27.830   8.382  0.2736  0.0260 -0.1341
    1W        W58469   3.418  23.227   8.756 -0.0068  0.1049  0.2109
    1W        W58470  12.955  13.850   7.902  0.1281 -0.0747 -0.1068
    1W        W58471   3.212  12.004   0.944  0.0641  0.1105 -0.1777
    1W        W58472   1.729   7.203   2.869  0.1575 -0.2500  0.0306
    1W        W58473  11.309  17.602   9.034  0.1302  0.1729 -0.1959
    1W        W58474  17.639  13.215   1.521 -0.0872 -0.0741  0.2105
    1W        W58475  21.127  19.491   0.273 -0.2099 -0.0231  0.0757
    1W        W58476  26.472  13.474   1.596  0.2482  0.1257 -0.1623
    1W        W58477   3.750   7.167   1.383 -0.1037  0.0291  0.1735
    1W        W58478   4.716   5.407   0.297 -0.0803  0.0252 -0.0690
    1W        W58479   4.637   9.495   8.983 -0.0649  0.1202  0.0134
    1W        W58480   4.146   9.477   8.799  0.2933  0.0518 -0.1279
    1W        W58481   2.983   3.603   6.397  0.0952 -0.1371  0.1574
    1W        W58482   7.209  14.600   9.228  0.3073  0.1706 -0.3058
    1W        W58483   7.840  18.521   7.475 -0.0579 -0.0105  0.2265
    1W        W58484   8.534   0.358   1.457  0.1262 -0.0177  0.0652
    1W        W58485  23.098   4.526   1.211  0.0130 -0.1237 -0.2056
    1W        W58486   7.654   3.272   9.354 -0.0528 -0.0896 -0.1513
    1W        W58487   8.392   2.935   0.474 -0.2015 -0.0677  0.0858
    1W        W58488  21.314  11.131   8.665  0.2103  0.2105 -0.2459
    1W        W58489   4.379  26.802   2.069  0.0335 -0.0076 -0.1915
    1W        W58490  12.185  25.166   7.672 -0.0944  0.1660  0.1947
    1W        W58491  18.418   6.849   2.907 -0.0568  0.3789  0.1112
    1W        W58492  12.607  21.335   6.002  0.5402  0.1730  0.1603
    1W        W58493  15.961   7.830   0.925 -0.1379 -0.0000  0.0665
    1W        W58494  27.765   8.948   2.257  0.0876 -0.3759 -0.0239
    1W        W58495  26.596  11.366   7.791  0.0742 -0.1523 -0.1898
    1W        W58496   8.413  27.533   8.224 -0.0975 -0.3156  0.1660
    1W        W58497   5.950  24.650   1.683 -0.1675  0.0047  0.4332
    1W        W58498   6.832   6.902   1.460 -0.2397 -0.1014 -0.1810
    1W        W58499   2.155  10.608   2.212  0.4501  0.0960  0.2846
    1W        W58500  25.495  13.691   1.303  0.0456 -0.1611  0.0247
    1W        W58501   2.534  17.670   8.481 -0.1873 -0.1324 -0.1322
    1W        W58502   7.835   5.544   0.467  0.1369  0.1257  0.1694
    1W        W58503  20.827  21.798   7.073 -0.0370 -0.0159  0.1454
    1W        W58504  11.597   2.001   7.241  0.3262  0.0485 -0.0114
    1W        W58505  25.379   4.750   0.680 -0.0248  0.1551 -0.1183
    1W        W58506  23.925   3.845   8.455  0.2821  0.1138 -0.2768
    1W        W58507  28.064  20.003   0.852  0.1381  0.1961  0.1621
    1W        W58508  10.854  18.645   1.284 -0.0642 -0.0851  0.0934
    1W        W58509  22.667  10.996   1.634 -0.1487  0.4657 -0.1712
    1W        W58510  29.093  14.798   1.728 -0.0084  0.1372 -0.0430
    1W        W58511   7.263  21.708   0.810 -0.1302  0.2030  0.1438
    1W        W58512  11.685   9.679   9.155  0.1814 -0.1393  0.4938
    1W        W58513   2.717   5.595   1.813 -0.0299 -0.0812 -0.0194
    1W        W58514   0.469  22.286   7.750  0.2335 -0.0397  0.0436
    1W        W58515   1.526  22.809   9.174 -0.2050 -0.0079  0.0218
    1W        W58516   4.960  18.343   8.700  0.2699 -0.1979 -0.1301
    1W        W58517  16.922  29.371   2.686 -0.0977  0.3570 -0.2364
    1W        W58518  17.161  22.736   2.191  0.2162  0.1019  0.1664
    1W        W58519   1.349  23.783   1.307 -0.3676  0.2618  0.1091
    1W        W58520  24.487   2.124   7.929 -0.3661  0.3472  0.1783
    1W        W58521   5.988  13.224   0.873  0.0001 -0.1297  0.1907
    1W        W58522  27.636  26.763   2.553  0.0012  0.4098 -0.0826
    1W        W58523  25.153  22.297   1.719  0.0830  0.1492 -0.1071
    1W        W58524  13.295  21.467   9.251  0.4025 -0.0432 -0.0897
    1W        W58525  10.437   3.057   3.177  0.0132 -0.0006  0.0903
    1W        W58526  18.327  25.535   1.855 -0.1816  0.3789  0.1068
    1W        W58527   0.918  18.800   6.657  0.0600 -0.1856 -0.2369
    1W        W58528  11.206  25.034   8.653 -0.1062 -0.0513  0.2767
    1W        W58529  21.736  28.909   1.601 -0.1346  0.2925  0.0543
    1W        W58530  21.565  15.730   7.683 -0.0794  0.1806 -0.0422
    1W        W58531   1.535  27.451   2.741 -0.2270 -0.1869 -0.4314
    1W        W58532   1.331  22.496   0.315 -0.0342  0.0670 -0.1165
    1W        W58533   5.346  15.579   8.435  0.0552 -0.0854  0.3834
    1W        W58534  24.499   7.337   3.201 -0.0409 -0.2032 -0.0811
    1W        W58535   7.865  28.871   7.212 -0.2249  0.1523 -0.0642
    1W        W58536   7.432  13.280   6.453  0.3688 -0.4973  0.0763
    1W        W58537  13.149   6.689   0.116  0.0174 -0.0745  0.0521
    1W        W58538  12.503  29.165   1.036  0.3843 -0.0070 -0.2562
    1W        W58539  23.464  20.395   0.723  0.2241 -0.0282  0.1707
    1W        W58540   2.732   5.899   2.232  0.2780  0.0395 -0.0202
    1W        W58541   6.454  15.103   7.969 -0.1760 -0.1003  0.0218
    1W        W58542  10.609  16.505   6.504  0.0369  0.1711  0.1446
    1W        W58543  15.921  12.276   1.867  0.3714 -0.2970 -0.1986
    1W        W58544  11.775  28.371   0.947 -0.4363 -0.2313  0.2169
    1W        W58545   3.706  28.783   0.863  0.2238 -0.2004 -0.2194
    1W        W58546   1.272  18.805   2.722  0.1218  0.1681 -0.2256
    1W        W58547  26.127  22.102   7.052 -0.1113  0.0175  0.0969
    1W        W58548   8.991  28.068   1.469 -0.0521  0.0553 -0.0033
    1W        W58549  13.100  13.358   1.699  0.0471 -0.1056  0.0341
    1W        W58550   1.206  14.686   7.514  0.1706 -0.0383  0.2645
    1W        W58551  13.601   0.651   1.150  0.1784 -0.0126 -0.0522
    1W        W58552   2.810  25.341   5.455  0.1956  0.0980 -0.1493
    1W        W58553  23.737  10.112   8.181  0.1645  0.1105 -0.2334
    1W        W58554  17.340  19.562   9.428  0.2146 -0.0958 -0.1329
    1W        W58555   9.199   0.405   3.094  0.1517 -0.3867 -0.1416
    1W        W58556  28.308   1.590   7.975 -0.3005 -0.1303 -0.0518
    1W        W58557  16.266   3.540   9.235  0.4404 -0.2948  0.0303
    1W        W58558  11.659   6.130   8.206  0.0883  0.2474  0.0730
    1W        W58559  22.620  14.003   0.271 -0.0530  0.0627  0.2268
    1W        W58560  13.331  15.606   0.086 -0.1457 -0.0870  0.0580
    1W        W58561  26.545   6.419   8.407 -0.0386 -0.0631 -0.1875
    1W        W58562  11.396  21.567   5.754 -0.0389  0.1042  0.2909
    1W        W58563  18.447   4.678   6.912  0.0877 -0.1451 -0.1376
    1W        W58564  18.091   0.875   7.965 -0.3699  0.0806  0.1923
    1W        W58565  15.799   5.622   0.729 -0.0164  0.2921 -0.0321
    1W        W58566  11.616  18.069   6.214  0.0460  0.2193 -0.2683
    1W        W58567   5.389   8.158   0.562  0.0283  0.1203  0.0239
    1W        W58568   4.343  24.703   7.464 -0.0663  0.3623 -0.0733
    1W        W58569   4.322  18.888   8.241  0.1417  0.1372 -0.0705
    1W        W58570  19.326  19.803   0.074 -0.2474  0.1363 -0.1002
    1W        W58571  14.528  20.537   0.754  0.1299 -0.0627  0.3252
    1W        W58572  23.404   1.945   1.174 -0.1450 -0.2079 -0.1151
    1W        W58573  29.416  11.753   7.603  0.3068 -0.0854 -0.1569
    1W        W58574  24.181   1.444   0.003 -0.0513 -0.3893  0.3014
    1W        W58575  12.671  22.633   8.947  0.1290 -0.0680 -0.1922
    1W        W58576   7.463   8.428   8.318 -0.0516  0.1849 -0.2206
    1W        W58577   3.291  25.570   7.086 -0.1980  0.2756  0.0581
    1W        W58578   5.226   0.381   2.335 -0.0757 -0.1606 -0.1095
    1W        W58579  22.495   1.689   1.190  0.3051  0.0833 -0.0021
    1W        W58580  11.015  11.078   1.483 -0.0370  0.0680 -0.0838
    1W        W58581   2.696  19.585   7.039  0.0493 -0.0793 -0.0731
    1W        W58582  26.611  29.732   2.886 -0.1563 -0.2155  0.6244
    1W        W58583  24.242   2.422   0.315  0.1558  0.0624 -0.1078
    1W        W58584  10.394  23.878   7.630  0.0928  0.3927 -0.0168
    1W        W58585  13.533   5.076   8.955  0.1597  0.1747 -0.0036
    1W        W58586  27.244  26.903   1.780  0.1557 -0.1075 -0.0055
    1W        W58587  15.703   6.324   7.560 -0.1163 -0.1897 -0.3778
    1W        W58588  29.444  27.330   0.605 -0.0600  0.2548  0.1350
    1W        W58589   5.016   6.659   0.892  0.1186 -0.1722  0.4574
    1W        W58590  10.449  10.054   2.001  0.2412  0.1109  0.2199
    1W        W58591  12.107  14.220   7.812  0.0789  0.1693 -0.0547
    1W        W58592   6.636  17.906   7.404  0.2590 -0.1209 -0.1158
    1W        W58593  11.795  15.218   9.258  0.0630  0.0398  0.1380
    1W        W58594  25.631   4.838   2.248 -0.0591 -0.1073  0.0085
    1W        W58595   1.907  14.435   5.989  0.1068  0.0709 -0.0022
    1W        W58596  26.892   0.326   0.655 -0.0652 -0.2415 -0.0143
    1W        W58597  17.855   0.117   3.338  0.1017  0.2508  0.2943
    1W        W58598  14.221  16.774   1.130 -0.0673 -0.1583  0.4761
    1W        W58599   8.626   0.795   1.730 -0.3061  0.0069 -0.1250
    1W        W58600  17.607   7.401   0.166  0.1223  0.2468  0.2340
    1W        W58601   6.816   4.910   0.535  0.0081  0.0582 -0.0353
    1W        W58602  26.214  24.925   8.642 -0.2788 -0.0256 -0.3937
    1W        W58603   2.087   6.661   1.263  0.0429  0.0258  0.1033
    1W        W58604  28.425  14.639   0.313  0.0136  0.0573 -0.2785
    1W        W58605   9.540  17.668   6.661  0.0061  0.1026 -0.0236
    1W        W58606  10.121  20.921   1.462  0.1762 -0.0531 -0.0825
    1W        W58607  12.680  13.890   0.994 -0.0536  0.0748 -0.0186
    1W        W58608  22.182  24.291   6.646 -0.0937 -0.0987 -0.1518
    1W        W58609   5.937  10.682   6.540  0.1905  0.1561 -0.0633
    1W        W58610   6.387   9.988   7.449 -0.0263  0.0657  0.3419
    1W        W58611  20.936  15.921   6.319 -0.0562  0.1611 -0.0301
    1W        W58612  17.067  27.048   0.499  0.0673  0.1902 -0.0141
    1W        W58613   9.875   8.188   9.230  0.3149  0.0129  0.1798
    1W        W58614  27.958  20.337   7.068 -0.1246  0.1055 -0.2460
    1W        W58615  17.575   8.129   6.593 -0.3294  0.0727  0.2602
    1W        W58616   3.581  25.052   9.067 -0.0327 -0.0417  0.0701
    1W        W58617   7.274  14.406   7.711 -0.1123 -0.1710 -0.0392
    1W        W58618   9.774  16.464   6.973  0.0683  0.4140  0.2380
    1W        W58619  20.911   5.624   2.167  0.0476 -0.0221  0.0940
    1W        W58620  24.265   0.257   8.078  0.1918  0.1880 -0.2311
    1W        W58621  23.922  10.860   1.181  0.0595 -0.0582  0.1365
    1W        W58622  28.900  28.367   2.047 -0.4178  0.3384 -0.2965
    1W        W58623  16.754  17.842   1.294  0.3094  0.1541  0.0869
    1W        W58624  16.186  27.470   2.934  0.0251 -0.0052 -0.0595
    1W        W58625  20.335  12.226   1.702  0.0471  0.0563 -0.0088
    1W        W58626  15.861  28.863   0.751 -0.1684  0.1833  0.2473
    1W        W58627  29.598  26.880   2.134 -0.4153  0.3121  0.0944
    1W        W58628  24.631  28.272   2.380 -0.0698 -0.2888  0.3549
    1W        W58629  28.193  19.132   0.655 -0.2936 -0.1969 -0.0520
    1W        W58630  24.616  13.369   0.675  0.0322  0.1320  0.1247
    1W        W58631  26.634  19.701   6.665  0.1672 -0.1021  0.0574
    1W        W58632  13.726   4.584   0.386 -0.0815 -0.3213  0.1562
    1W        W58633  29.197  16.824   7.622 -0.3317 -0.0183 -0.0524
    1W        W58634  15.897  17.876   0.326  0.0966  0.0720 -0.1429
    1W        W58635  19.534  25.991   2.671  0.1655  0.0102 -0.1270
    1W        W58636  19.987  14.759   8.586  0.1916  0.2569  0.1136
    1W        W58637   6.276  12.139   8.267 -0.1309 -0.1240  0.0808
    1W        W58638  17.979  15.505   9.447 -0.2053  0.1135 -0.3362
    1W        W58639  21.147   7.550   1.656  0.0290  0.1053  0.0692
    1W        W58640  29.553   3.345   7.152 -0.2082  0.1320  0.0557
    1W        W58641   5.957  28.727   6.884 -0.1550 -0.1837 -0.0187
    1W        W58642  10.911  13.477   6.878 -0.0048  0.2542 -0.1998
    1W        W58643  19.941  24.229   0.633  0.4822 -0.0398  0.0132
    1W        W58644  14.144  21.456   0.024 -0.0172 -0.1682 -0.0826
    1W        W58645   6.693  11.664   7.722 -0.0556 -0.0213 -0.1673
    1W        W58646   8.794  22.956   6.812 -0.0371 -0.0957 -0.0763
    1W        W58647  21.418   7.867   5.795  0.2762  0.1450  0.0658
    1W        W58648   4.825   6.883   8.109 -0.3056 -0.2896  0.2245
    1W        W58649   2.368  24.214   7.719 -0.0820  0.0388  0.1806
    1W        W58650  21.286  28.914   0.259 -0.2277  0.0550  0.1857
    1W        W58651   6.205  12.500   6.742 -0.2861 -0.1123 -0.0299
    1W        W58652   3.329  18.856   9.046 -0.0337  0.2059 -0.0972
    1W        W58653  28.796  21.213   8.362 -0.0317  0.1395  0.0684
    1W        W58654  18.798  22.406   7.762 -0.0233 -0.0963 -0.0825
    1W        W58655  14.905   2.364   2.195 -0.0043 -0.1686  0.1054
    1W        W58656  15.901  25.774   3.606 -0.1645  0.1784  0.0597
    1W        W58657   1.747  22.215   2.635 -0.3363  0.0620  0.1278
    1W        W58658  26.899   7.242   8.555  0.2156 -0.1280  0.1134
    1W        W58659  17.399  28.560   1.391  0.1312 -0.0658  0.3710
    1W        W58660   7.459  25.673   1.509 -0.1432  0.0243  0.0007
    1W        W58661  20.771   2.145   2.328  0.1058  0.0943  0.2499
    1W        W58662   2.198  10.436   0.167 -0.0796 -0.0239  0.5681
    1W        W58663   0.494   2.575   1.896 -0.0652 -0.0487 -0.0104
    1W        W58664  11.066  10.209   8.099 -0.1691  0.1847  0.1279
    1W        W58665   4.264   6.171   1.362 -0.2687  0.0591 -0.3730
    1W        W58666  16.698  21.436   2.321 -0.2426 -0.1407  0.2625
    1W        W58667   5.438  13.906   2.392  0.1104 -0.0716  0.0527
    1W        W58668   6.456  17.187   7.660  0.5405 -0.0975 -0.1440
    1W        W58669  22.692  22.963   1.813 -0.0970 -0.0651  0.1275
    1W        W58670  23.791  25.833   8.942  0.1104 -0.1813 -0.0039
    1W        W58671  20.396   5.213   9.027 -0.2287  0.1160 -0.1442
    1W        W58672  22.966   8.788   7.222 -0.0329  0.1450  0.0714
    1W        W58673  10.199  14.420   7.554 -0.1961 -0.0661  0.0628
    1W        W58674   3.302   6.927   1.989 -0.1882 -0.1339 -0.0084
    1W        W58675  22.639  25.859   9.212  0.0464  0.2434  0.1405
    1W        W58676   3.779   3.124   2.161  0.1273  0.0708 -0.2838
    1W        W58677  12.016   1.978   0.402 -0.4001  0.0713  0.1464
    1W        W58678   7.665  21.290   5.854 -0.4484  0.0459  0.0387
    1W        W58679  24.118  26.075   9.226 -0.1604  0.0192  0.1737
    1W        W58680  23.849   1.868   7.395 -0.2127 -0.0481  0.1941
    1W        W58681  20.526   3.878   2.524 -0.0695 -0.0262 -0.0031
    1W        W58682  29.544  22.716   5.524  0.0426 -0.1273 -0.3114
    1W        W58683  25.821   9.760   8.481  0.3824  0.2610  0.1773
    1W        W58684  26.693  19.655   1.428  0.1651 -0.2240 -0.1210
    1W        W58685  13.379   4.320   1.979 -0.0768  0.5715 -0.3755
    1W        W58686   6.431  25.748   0.576 -0.2676  0.1006 -0.0805
    1W        W58687   3.546   2.891   7.176 -0.2786  0.4038 -0.0586
    1W        W58688  29.666  10.155   8.072 -0.0409 -0.3435  0.0969
    1W        W58689   7.663  16.161   9.305 -0.2957  0.0429 -0.0697
    1W        W58690  25.828   0.409   7.276  0.1136 -0.0967  0.2234
    1W        W58691  21.351  26.016   0.275  0.2581  0.0692  0.0255
    1W        W58692   0.254  13.708   8.032  0.1300 -0.0643  0.0027
    1W        W58693  23.276  17.062   1.101 -0.0582  0.0347 -0.2639
    1W        W58694   7.380  15.690   5.880 -0.2501  0.2329  0.1555
    1W        W58695   2.611  22.600   5.722  0.0727 -0.1851  0.3065
    1W        W58696  18.053   8.369   1.539 -0.0207 -0.0150 -0.0660
    1W        W58697   5.244   1.894   7.613  0.0158  0.0512  0.1607
    1W        W58698   5.523  23.959   8.973  0.0695 -0.1052 -0.2136
    1W        W58699  21.465  11.447   1.133 -0.0315  0.1885  0.1635
    1W        W58700  20.930   2.360   0.429  0.0364  0.1064 -0.2142
    1W        W58701   7.052  13.678   8.553 -0.0074  0.1207  0.1600
    1W        W58702  10.818  28.783   1.724  0.0472  0.0485  0.0137
    1W        W58703  25.350   1.733   8.452  0.0501  0.1289 -0.2408
    1W        W58704  18.217   4.818   0.212 -0.0237 -0.2351 -0.0831
    1W        W58705  25.902  21.492   2.871 -0.0863 -0.2847  0.0032
    1W        W58706   2.994  25.834   6.367  0.0694  0.0475 -0.0299
    1W        W58707  16.538   2.205   9.283  0.0083 -0.0862  0.2345
    1W        W58708  26.952   1.877   8.263 -0.3551 -0.0259  0.1838
    1W        W58709   7.378   1.940   1.946 -0.0158  0.1606  0.2093
    1W        W58710  20.853   9.735   6.906  0.1469 -0.1984  0.2957
    1W        W58711   4.319  24.528   2.084 -0.0090  0.1732 -0.3066
    1W        W58712  10.663   2.551   8.543 -0.2570  0.0335 -0.0338
    1W        W58713   0.197   0.509   6.695 -0.3424 -0.2365 -0.1352
    1W        W58714  13.949  25.957   0.287  0.0233 -0.1995  0.3129
    1W        W58715  21.443   5.692   2.313  0.1938  0.2152  0.1130
    1W        W58716   8.633  11.140   8.120 -0.0912 -0.1154 -0.0629
    1W        W58717  22.859   2.326   7.284 -0.0661  0.0126 -0.1113
    1W        W58718  20.268  22.490   7.963 -0.0078 -0.2382 -0.0021
    1W        W58719   2.959  13.102   0.457  0.1304 -0.2820 -0.4163
    1W        W58720  11.938  11.488   9.121 -0.2879  0.1042  0.1743
    1W        W58721   6.908   7.045   0.342  0.0009  0.0358  0.0874
    1W        W58722  17.874  19.370   7.925 -0.2696  0.1841  0.1509
    1W        W58723  22.382  27.285   0.827 -0.1743 -0.1644 -0.3473
    1W        W58724  29.667  28.586   6.372 -0.0852  0.1234  0.1785
    1W        W58725   0.635  21.212   5.875  0.1247 -0.1733  0.0471
    1W        W58726  19.679  11.476   0.038  0.2424 -0.4260 -0.0166
    1W        W58727   7.521   9.877   0.711 -0.1236 -0.1044 -0.1179
    1W        W58728   7.598  29.331   8.458 -0.0088  0.1663 -0.2384
    1W        W58729  21.469  19.082   7.425  0.2369  0.0779 -0.0482
    1W        W58730  10.392  22.063   7.420  0.1135  0.0550 -0.3517
    1W        W58731  22.636  23.998   7.504  0.3850 -0.1371  0.3798
    1W        W58732  26.645  26.529   9.080 -0.2138  0.1027 -0.2029
    1W        W58733   4.091  14.401   0.518 -0.1562 -0.1396  0.2043
    1W        W58734   2.274  10.862   0.421 -0.1698  0.0555 -0.0863
    1W        W58735  21.980   5.748   0.691 -0.0533  0.3507 -0.2365
    1W        W58736  27.047   8.669   2.828 -0.0651  0.0497  0.1443
    1W        W58737  24.307  12.167   6.904 -0.2398  0.0610 -0.0027
    1W        W58738  10.368   8.252   8.964 -0.1142  0.1688  0.4718
    1W        W58739  16.486  26.773   8.612 -0.0102 -0.1116 -0.2469
    1W        W58740   1.104  12.167   0.573  0.0709 -0.2414 -0.0332
    1W        W58741  29.290  28.613   9.005  0.0397  0.2247 -0.0748
    1W        W58742  19.338  27.061   7.399  0.0510 -0.0096 -0.0905
    1W        W58743  12.955   5.376   1.923 -0.1056 -0.1614  0.3217
    1W        W58744   2.807  25.787   1.588 -0.2130 -0.0438 -0.4402
    1W        W58745  14.823  16.558   8.698 -0.0785 -0.0340 -0.1897
    1W        W58746   5.285   9.158   7.108  0.0464 -0.0663 -0.0088
    1W        W58747  12.294  14.527   8.307 -0.1433 -0.0906 -0.1489
    1W        W58748   3.795  19.505   0.275 -0.2628 -0.4305 -0.0935
    1W        W58749  15.990  18.442   9.233 -0.1736 -0.1751 -0.1667
    1W        W58750  29.268   1.617   8.256  0.0545  0.1704 -0.1105
    1W        W58751  12.828  13.056   1.391  0.1618 -0.0293 -0.0910
    1W        W58752   2.731  12.171   0.055  0.3422 -0.1995  0.1332
    1W        W58753   0.788  27.297   2.036 -0.0132  0.2108  0.0397
    1W        W58754   8.790   8.733   7.847 -0.2172 -0.1244 -0.1454
    1W        W58755  22.012   1.312   9.108 -0.1591 -0.0051 -0.0723
    1W        W58756  18.682   5.694   0.877 -0.1726 -0.1759  0.3055
    1W        W58757   6.940   7.586   8.484  0.2083 -0.0047  0.1592
    1W        W58758  23.877  18.540   8.028  0.1211  0.2622  0.0558
    1W        W58759   9.699  20.998   8.012 -0.1877  0.1906 -0.1584
    1W        W58760  27.238   9.769   1.241  0.1495  0.0001 -0.1495
    1W        W58761  19.013  16.471   8.628  0.1925  0.0969  0.2744
    1W        W58762  13.824  23.795   1.944  0.0225  0.0336  0.0782
    1W        W58763   3.944  24.940   6.534  0.0662  0.1299  0.2650
    1W        W58764  25.222   4.627   7.386  0.0982  0.2353 -0.0602
    1W        W58765   4.481   1.031   2.129  0.0845  0.1219 -0.0316
    1W        W58766  10.709   0.419   2.228  0.1393 -0.1657 -0.0220
    1W        W58767  26.805  23.336   6.958  0.0592 -0.0043 -0.2540
    1W        W58768  19.416   3.080   6.489  0.0910  0.2322 -0.1836
    1W        W58769   9.726  13.697   0.271  0.2672  0.0505 -0.0553
    1W        W58770  25.016  18.883   1.429 -0.1989  0.1165  0.2349
    1W        W58771  27.165  20.330   7.527  0.1019  0.0524  0.0596
    1W        W58772  17.722  21.363   1.346 -0.1214  0.1450  0.2514
    1W        W58773  27.607  24.101   1.360  0.1493 -0.0345  0.1308
    1W        W58774  21.087  25.704   2.630  0.1469 -0.1886 -0.3341
    1W        W58775  27.703  14.979   6.767 -0.2226  0.3198  0.1010
    1W        W58776   2.883  18.445   8.014 -0.0077 -0.5183 -0.1084
    1W        W58777  15.945   0.353   3.068 -0.1214 -0.1961 -0.2337
    1W        W58778  13.748  13.272   1.132 -0.0751  0.1558 -0.3852
    1W        W58779   4.046   8.430   7.957 -0.1800  0.1017  0.0633
    1W        W58780  25.915  15.869   6.408 -0.0934  0.1852  0.1114
    1W        W58781  23.587  23.125   1.548  0.0537  0.2977 -0.0604
    1W        W58782   0.905  28.697   7.493  0.2004  0.0496  0.0396
    1W        W58783   2.891  26.562   6.079 -0.2993  0.0721 -0.0287
    1W        W58784  27.864  17.870   6.996 -0.0456  0.0161 -0.0909
    1W        W58785   8.630   4.395   3.816 -0.3046 -0.2604  0.0497
    1W        W58786   4.922  10.289   0.889 -0.2136 -0.0737  0.0364
    1W        W58787   1.098  11.150   0.933  0.0672  0.1805  0.0870
    1W        W58788  22.754   0.099   2.520  0.1720 -0.0062  0.1048
    1W        W58789   8.793  16.067   7.772  0.0964  0.1166 -0.3164
    1W        W58790  11.581  21.378   9.130 -0.0648 -0.0290  0.2693
    1W        W58791   3.287  23.345   7.137  0.1921 -0.1622 -0.0524
    1W        W58792  22.731  21.544   8.408  0.2091  0.0962  0.4781
    1W        W58793   0.480  20.681   1.563 -0.1376  0.3869 -0.0885
    1W        W58794  21.569   4.522   3.094 -0.0432  0.1205 -0.0089
    1W        W58795  13.306   8.270   3.004 -0.3342 -0.0346 -0.1571
    1W        W58796  29.691   4.406   7.943  0.1048 -0.0623  0.1729
    1W        W58797  18.413  26.517   1.833  0.1810  0.1557  0.0203
    1W        W58798   6.314  18.601   2.524 -0.0291  0.0926  0.1817
    1W        W58799  23.689   8.414   2.153  0.1434 -0.1802 -0.2552
    1W        W58800  17.081  23.640   9.155 -0.2500  0.1380 -0.3766
    1W        W58801   7.846   6.553   6.949 -0.2547 -0.1968 -0.1557
    1W        W58802   9.718  26.229   2.190 -0.0942 -0.0884  0.0952
    1W        W58803  26.220  23.530   2.954  0.1485 -0.0726 -0.0954
    1W        W58804  28.865  13.393   0.176  0.3814 -0.1327  0.2351
    1W        W58805   1.919   9.484   0.364  0.3193 -0.0958  0.0225
    1W        W58806  13.687   0.190   7.625  0.2374 -0.0724  0.1027
    1W        W58807  29.734  29.048   1.876  0.0968 -0.1799 -0.0697
    1W        W58808  29.539  19.025   0.682  0.3419  0.1361  0.2075
    1W        W58809  23.775   1.682   0.331 -0.0664 -0.3502  0.2380
    1W        W58810   4.600   6.785   8.529  0.2561 -0.0544  0.1381
    1W        W58811  11.270  29.059   3.810 -0.1571 -0.2106  0.0469
    1W        W58812  23.846  19.449   1.011 -0.1711 -0.0278  0.0423
    1W        W58813   3.932  25.553   0.575 -0.1977  0.0776 -0.1734
    1W        W58814  10.442  22.673   7.640 -0.0768 -0.1742 -0.0426
    1W        W58815   7.042  22.862   1.420  0.4262 -0.1336 -0.0686
    1W        W58816   7.863   0.556   2.318 -0.0241  0.4202  0.2023
    1W        W58817  17.558  24.361   2.056 -0.1164  0.0705  0.2000
    1W        W58818  28.315  13.382   2.430 -0.2083 -0.0884  0.2501
    1W        W58819   3.443  28.850   2.698  0.0309 -0.0885 -0.0559
    1W        W58820   4.234  17.611   7.849  0.2533  0.1281 -0.1833
    1W        W58821  10.000  10.058   1.533 -0.0258  0.1581  0.0389
    1W        W58822   2.842  13.330   7.555 -0.0193  0.2058 -0.0201
    1W        W58823  19.616  18.211   0.238 -0.1693 -0.1766 -0.1458
    1W        W58824  23.174  13.268   9.401  0.1404 -0.3074  0.0585
    1W        W58825  13.220  16.794   8.491 -0.0187 -0.1946 -0.0083
    1W        W58826   4.450   0.711   7.497 -0.1099 -0.1612  0.0051
    1W        W58827  10.526  29.727   9.458  0.1722 -0.0224  0.1149
    1W        W58828   1.072  14.742   5.434  0.0996 -0.1170  0.1546
    1W        W58829   6.563  11.987   0.947 -0.0028 -0.0246 -0.0874
    1W        W58830  12.450  26.271   0.809 -0.1796 -0.0328  0.1644
    1W        W58831   4.202  14.672   1.080 -0.2579  0.2286 -0.2142
    1W        W58832   3.999  17.847   5.959 -0.0245  0.0590 -0.0178
    1W        W58833  25.935  12.378   1.533 -0.1033 -0.0937 -0.2820
    1W        W58834  14.720   1.223   2.044 -0.0075 -0.1462  0.0216
    1W        W58835   8.603  27.815   7.871  0.0542  0.2086  0.2360
    1W        W58836  12.721   1.716   0.330  0.1778  0.4388  0.0130
    1W        W58837   0.852  19.368   9.359 -0.0690 -0.0666  0.0664
    1W        W58838  26.386  13.227   0.407 -0.0290 -0.1171  0.1418
    1W        W58839  13.750   6.032   0.373 -0.0499  0.1632  0.0008
    1W        W58840  18.909  18.048   7.141 -0.0674 -0.0180 -0.0489
    1W        W58841   6.174   4.072   3.602 -0.0670 -0.2678  0.0978
    1W        W58842  28.185  18.435   8.848 -0.0485  0.4215 -0.0822
    1W        W58843  14.100  22.016   1.613 -0.1173 -0.2463  0.0128
    1W        W58844  22.897   7.104   7.192 -0.4649 -0.0547  0.0415
    1W        W58845  25.176  18.523   9.137  0.3322  0.2031  0.1955
    1W        W58846  14.734  22.159   7.103 -0.2233 -0.1093 -0.1228
    1W        W58847  13.495  27.719   0.503 -0.0855 -0.2733 -0.0003
    1W        W58848  22.415   9.096   9.455 -0.1473 -0.4346  0.3017
    1W        W58849   6.319   9.249   7.987 -0.1939  0.1020 -0.2032
    1W        W58850  29.676  21.982   0.638  0.1058 -0.0948  0.3593
    1W        W58851  11.506   5.501   1.747 -0.2468 -0.1459  0.3292
    1W        W58852  25.309  18.513   1.437  0.2141  0.1236  0.1509
    1W        W58853  15.718   1.046   2.998  0.0798 -0.0987  0.2209
    1W        W58854  20.414   2.370   7.628 -0.1158  0.0355 -0.0646
    1W        W58855   4.748  25.118   7.287  0.1157 -0.0688  0.1375
    1W        W58856  10.069   2.446   0.283 -0.2266 -0.0742  0.0146
    1W        W58857  11.094  17.607   1.352  0.2540 -0.2962  0.0971
    1W        W58858   2.301  12.195   9.233 -0.2651  0.0746  0.0695
    1W        W58859  16.349   4.078   7.461  0.0702 -0.0787 -0.1349
    1W        W58860   9.795   1.607   1.270  0.1268 -0.2717 -0.0447
    1W        W58861  17.501  10.794   1.046  0.0188 -0.1938  0.1747
    1W        W58862  21.265  23.021   8.601 -0.0727 -0.2396 -0.0985
    1W        W58863  13.796  13.968   1.824  0.0785  0.0768 -0.0002
    1W        W58864   8.269   7.988   8.050 -0.0950 -0.0146 -0.1047
    1W        W58865  16.371  25.616   8.627 -0.0555 -0.1112 -0.0285
    1W        W58866  16.089  26.676   3.570 -0.1745 -0.0633  0.0606
    1W        W58867  29.015   4.867   6.982  0.1464  0.0785 -0.0590
    1W        W58868  13.583  24.886   2.144  0.0954  0.2223  0.2476
    1W        W58869  27.942   6.087   3.191  0.0675 -0.1376 -0.2254
    1W        W58870   9.982   6.674   1.261 -0.2058 -0.3112 -0.3022
    1W        W58871  23.627   4.974   6.944  0.1426  0.2274 -0.3754
    1W        W58872   4.204   7.966   7.313 -0.0481 -0.0677  0.0548
    1W        W58873  27.357   9.006   7.987  0.1241 -0.0287  0.0992
    1W        W58874  16.694  10.044   9.165  0.0075 -0.0392 -0.0647
    1W        W58875   8.275   4.485   0.111  0.2647  0.2173  0.0504
    1W        W58876   3.337  13.259   0.154  0.1244 -0.1007 -0.1003
    1W        W58877  14.735  23.061   9.024 -0.1718 -0.4762  0.0045
    1W        W58878  12.497  19.641   2.369 -0.2635  0.2014  0.0698
    1W        W58879  16.228   5.913   0.630 -0.0796  0.0691  0.1665
    1W        W58880   0.288  23.331   0.458 -0.1390  0.0942  0.1210
    1W        W58881  27.181  23.221   9.352 -0.3445 -0.1533 -0.0138
    1W        W58882  23.324   2.979   2.689 -0.0863 -0.1610 -0.2866
    1W        W58883   3.818  24.198   1.910  0.2127 -0.4723 -0.1794
    1W        W58884   8.326  17.262   1.629  0.0505 -0.0297 -0.0028
    1W        W58885  24.296  25.195   7.996 -0.0397 -0.0092  0.2340
    1W        W58886  15.026  23.625   7.509 -0.1883  0.0009  0.1311
    1W        W58887  17.755   7.890   0.121 -0.0558 -0.2646  0.2475
    1W        W58888  28.272   0.808   1.957  0.2021 -0.5115  0.4542
    1W        W58889  14.805  17.209   0.248 -0.0842 -0.1834 -0.1017
    1W        W58890  12.093   4.068   7.336  0.0480 -0.0440 -0.0619
    1W        W58891  10.967  19.757   0.128 -0.0350  0.1613  0.1992
    1W        W58892   6.071   7.607   6.674  0.0537  0.2310  0.0250
    1W        W58893  26.731   1.888   2.486  0.0869  0.2556 -0.3158
    1W        W58894   5.675  28.972   1.693  0.2471  0.2247  0.0995
    1W        W58895   2.030  13.301   0.532  0.1308  0.0655  0.1199
    1W        W58896  11.464  22.384   7.588 -0.3729 -0.0119  0.1240
    1W        W58897  22.371  19.448   2.167  0.2222 -0.0918  0.1888
    1W        W58898  12.579   9.290   1.806  0.1387  0.0321  0.0142
    1W        W58899  13.745   0.113   1.278  0.0815 -0.3024 -0.0798
    1W        W58900   3.651  10.351   1.570 -0.2609 -0.2262 -0.1527
    1W        W58901  23.423   5.325   8.303 -0.1113  0.0727 -0.1477
    1W        W58902   7.693   4.597   0.941  0.2297  0.0621  0.4923
    1W        W58903  27.094  28.411   7.658 -0.0321  0.0318 -0.0759
    1W        W58904  29.688  27.309   0.174  0.0819 -0.3727 -0.0760
    1W        W58905  24.106  29.731   1.117  0.4847  0.3390  0.0409
    1W        W58906   2.275   5.459   3.253  0.3589  0.0752 -0.3041
    1W        W58907   6.922   2.706   1.748 -0.1320 -0.2102  0.2350
    1W        W58908  10.952  19.057   1.683 -0.2688 -0.1085  0.1542
    1W        W58909  26.458   4.440   2.900 -0.1325  0.0498  0.2574
    1W        W58910  14.634   0.239   3.372  0.2121 -0.1353 -0.0320
    1W        W58911  10.172  13.550   0.226 -0.3872  0.2088  0.0581
    1W        W58912  28.074   7.601   0.713 -0.0358 -0.1668 -0.3552
    1W        W58913  25.005  19.598   6.823  0.1081 -0.1576  0.0642
    1W        W58914  13.793  24.411   8.874 -0.0795 -0.1657  0.2161
    1W        W58915  17.411   4.530   6.822 -0.0905 -0.0627  0.2652
    1W        W58916  23.568  11.234   7.726 -0.1676  0.3410  0.1272
    1W        W58917  23.547   3.194   8.509 -0.3705 -0.1543 -0.0881
    1W        W58918   0.256   8.753   1.403  0.1814  0.1127  0.0564
    1W        W58919  29.604  23.471   8.556  0.1001  0.1211  0.0918
    1W        W58920  17.432   5.897   7.284 -0.0873  0.0362  0.0547
    1W        W58921   4.248  12.575   8.794 -0.1430 -0.0585  0.4392
    1W        W58922  29.296  15.184   0.339 -0.0994 -0.0306 -0.1963
    1W        W58923   1.186  27.881   1.559 -0.0612  0.0581 -0.0365
    1W        W58924  19.363  13.541   6.463  0.1260  0.1030 -0.3976
    1W        W58925   0.544   1.859   7.269  0.0012 -0.2449  0.0759
    1W        W58926  22.036   1.790   2.472  0.0252  0.0588 -0.2560
    1W        W58927  13.580  27.896   7.698 -0.3345 -0.2103 -0.1832
    1W        W58928  10.681  25.089   8.765 -0.1276  0.2892  0.1691
    1W        W58929  29.542   9.607   8.054 -0.2528 -0.0452  0.1132
    1W        W58930  17.748  27.841   2.583 -0.0581 -0.0119 -0.1881
    1W        W58931  15.784  14.763   7.912  0.0009  0.3233 -0.0247
    1W        W58932   3.437   8.807   1.668  0.3183 -0.0086 -0.1392
    1W        W58933  18.779  28.621   9.134  0.0584  0.0430  0.1957
    1W        W58934   1.773  12.354   1.361 -0.0721 -0.0106  0.0269
    1W        W58935  28.473  11.750   6.916 -0.2092 -0.2944 -0.1030
    1W        W58936  19.870   9.124   0.859 -0.1972 -0.0058 -0.2857
    1W        W58937  26.461  19.920   7.106 -0.0083  0.1040 -0.2211
    1W        W58938   7.175   8.707   7.842 -0.1449  0.0812  0.4222
    1W        W58939  25.792   5.740   0.991 -0.3116  0.1707 -0.1302
    1W        W58940  19.497  25.560   7.834  0.3886  0.1475 -0.0326
    1W        W58941  19.915   0.738   3.080 -0.0023  0.0196 -0.0982
    1W        W58942  28.288  21.009   1.974 -0.0487 -0.0988 -0.0454
    1W        W58943   6.863   5.684   2.975  0.1835 -0.0726 -0.4046
    1W        W58944  16.939   1.153   0.836 -0.0390 -0.0573  0.1079
    1W        W58945  10.468  19.971   0.963  0.0459 -0.2937 -0.0030
    1W        W58946  25.552   0.139   8.660 -0.0552 -0.1625  0.0716
    1W        W58947   5.593  29.069   8.259  0.0915  0.0847  0.0326
    1W        W58948   1.483  21.479   2.694  0.3315 -0.0638 -0.2483
    1W        W58949  18.884  21.541   1.172  0.0888  0.0303  0.0140
    1W        W58950   6.356  13.370   3.120  0.2632 -0.1046  0.0680
    1W        W58951   8.486  28.012   8.864 -0.2048  0.1463  0.1007
    1W        W58952  14.765  14.677   0.122 -0.0412  0.1334 -0.1046
    1W        W58953   8.632  23.352   1.686  0.0941  0.3627 -0.0654
    1W        W58954  12.091  26.155   3.201 -0.0690 -0.1153 -0.0478
    1W        W58955   5.849   5.177   8.261 -0.0348  0.1061 -0.0026
    1W        W58956   2.508  22.173   5.870 -0.1177  0.1537 -0.1553
    1W        W58957  16.080  27.170   6.754  0.3620  0.0289  0.0802
    1W        W58958   0.446  20.984   2.563 -0.0377  0.2699 -0.0041
    1W        W58959  16.742   2.262   0.285 -0.4179 -0.0949  0.2244
    1W        W58960  26.119  11.301   9.162  0.1565 -0.1105  0.1824
    1W        W58961  21.541  10.771   7.792 -0.0985 -0.0030  0.0394
    1W        W58962  18.287   5.122   6.841 -0.1105 -0.0070  0.2092
    1W        W58963  15.681   7.943   7.052  0.1063  0.3589  0.1713
    1W        W58964  10.716  19.278   7.503  0.1121  0.0637 -0.1084
    1W        W58965  21.735  10.799   1.227 -0.0027 -0.2126  0.1556
    1W        W58966   1.079  25.538   8.356  0.0994 -0.2801 -0.1006
    1W        W58967  29.571  11.523   9.049  0.0511  0.0245  0.0958
    1W        W58968  23.002  20.143   9.200 -0.0350  0.1521 -0.0015
    1W        W58969  21.254  21.666   9.280  0.2274 -0.1437  0.3254
    1W        W58970   4.243  13.357   0.825 -0.1824  0.1267 -0.2294
    1W        W58971  16.685   9.387   9.289  0.1621  0.2682 -0.2078
    1W        W58972  15.481  24.087   0.311  0.2955 -0.0249  0.1708
    1W        W58973  29.236  27.266   7.524  0.3679 -0.0397 -0.2771
    1W        W58974   0.573  23.242   2.391  0.0541 -0.1372  0.2254
    1W        W58975   3.484  26.701   7.876  0.0035  0.2824  0.2465
    1W        W58976  15.818  12.926   1.258  0.0865  0.2899  0.2113
    1W        W58977  18.820   1.296   1.700  0.2552  0.1635 -0.0276
    1W        W58978  11.780  21.900   8.836 -0.1561  0.0703  0.4880
    1W        W58979  17.250   5.569   8.433 -0.1522 -0.0785 -0.1043
    1W        W58980  28.320  25.050   0.417  0.1074  0.1085  0.0353
    1W        W58981  19.405  27.810   0.203 -0.1804 -0.3344  0.2645
    1W        W58982  22.112  10.292   1.451  0.3087 -0.3639 -0.1440
    1W        W58983  15.592  16.746   9.344  0.0145 -0.0163 -0.0171
    1W        W58984   2.835  19.821   0.019  0.0516 -0.2327 -0.0770
    1W        W58985  15.021  29.483   0.509  0.1715  0.0827 -0.0374
    1W        W58986  26.420   9.488   1.108  0.0819  0.2801 -0.1911
    1W        W58987   7.471  11.544   8.292  0.1310 -0.0185 -0.1509
    1W        W58988  21.673  11.816   1.962  0.1177  0.0784  0.1709
    1W        W58989  12.028   9.591   8.722 -0.2260  0.0984  0.1061
    1W        W58990  13.573  26.047   7.006  0.1423 -0.1558 -0.1309
    1W        W58991  19.297   3.628   2.055 -0.1358 -0.0458 -0.2742
    1W        W58992   4.957  25.294   7.758  0.0597 -0.1888 -0.1112
    1W        W58993  18.553  23.231   3.181 -0.0849 -0.1799  0.0449
    1W        W58994   3.858  12.506   9.047  0.2527  0.0463  0.2960
    1W        W58995  21.336  29.707   7.013  0.1334  0.0451 -0.1728
    1W        W58996   6.651   7.961   8.184 -0.2502 -0.0169 -0.1072
    1W        W58997   7.710   4.056   3.853 -0.1501  0.2186 -0.2126
    1W        W58998  26.979   5.023   1.071 -0.0229 -0.0069  0.0174
    1W        W58999  20.677   7.341   2.824 -0.0053 -0.1595 -0.1124
    1W        W59000  16.621  13.658   1.148  0.0498  0.1509 -0.2350
    1W        W59001   1.716  24.206   1.150 -0.1334  0.3745  0.1732
    1W        W59002   5.205  27.483   8.966 -0.0619  0.0180  0.4165
    1W        W59003  26.712  16.829   8.239  0.2501  0.0985 -0.2226
    1W        W59004   0.603   2.360   8.356  0.0200  0.0957  0.0244
    1W        W59005   4.812  29.363   2.746  0.0054  0.1839 -0.2180
    1W        W59006  25.096  25.877   6.263 -0.2675  0.2945  0.1120
    1W        W59007  11.272  10.823   7.531 -0.2623 -0.1969 -0.2641
    1W        W59008  11.442   5.826   9.244  0.2400  0.2249 -0.0607
    1W        W59009  23.839  27.257   0.751 -0.2984  0.1310 -0.3244
    1W        W59010   7.173   7.996   8.236  0.2974 -0.2099  0.1486
    1W        W59011   5.036   8.897   9.416 -0.1959  0.2325  0.1202
    1W        W59012  25.272  14.373   6.704 -0.0349 -0.0468  0.2470
    1W        W59013  17.523   3.960   1.771 -0.0838  0.0351  0.0532
    1W        W59014   2.069  14.428   6.468  0.0101 -0.2501 -0.0514
    1W        W59015   1.488   2.257   6.457  0.0387  0.0368  0.2558
    1W        W59016   3.082  16.420   7.329  0.2352  0.1320 -0.0262
    1W        W59017   7.967  18.233   1.860  0.0068  0.3463  0.2823
    1W        W59018  17.825  21.349   8.031 -0.2152 -0.1338  0.0515
    1W        W59019  24.618  22.363   8.069  0.0319 -0.1550  0.3261
    1W        W59020  24.094  14.931   9.294 -0.0860 -0.0880 -0.0818
    1W        W59021   4.618  23.362   9.172 -0.1629  0.0076 -0.0568
    1W        W59022  12.167   7.480   2.992 -0.1666 -0.3281 -0.0618
    1W        W59023  25.054   3.999   0.707 -0.1105 -0.1070  0.0080
    1W        W59024  21.197  24.812   2.430 -0.1575  0.1824  0.0195
    1W        W59025   4.273   1.742   9.238  0.1212  0.2168  0.1616
    1W        W59026  16.518  14.674   1.432  0.2726 -0.0016  0.2205
    1W        W59027  22.522  12.465   5.854  0.1098  0.0171  0.1742
    1W        W59028  25.972  12.652   1.149  0.2417 -0.2460 -0.2572
    1W        W59029  22.560  25.404   0.671  0.0771  0.2148 -0.0266
    1W        W59030  23.874  16.583   1.294 -0.0414  0.1905  0.1466
    1W        W59031  22.674  16.862   2.383 -0.1542  0.3081 -0.0907
    1W        W59032   7.546   7.793   2.194  0.3448 -0.3283  0.4827
    1W        W59033  10.864  28.825   7.207  0.0843 -0.0704 -0.0166
    1W        W59034  14.365  13.522   2.565 -0.1735  0.0022  0.0339
    1W        W59035   4.039  12.638   7.466  0.1198  0.1081 -0.1070
    1W        W59036  28.494  27.127   9.028 -0.0117  0.4182  0.1693
    1W        W59037  28.153  19.179   8.192 -0.2524 -0.0491  0.0240
    1W        W59038   9.179  24.533   2.627 -0.0837 -0.0273  0.1746
    1W        W59039   4.325   5.947   0.859  0.2057 -0.0045 -0.2148
    1W        W59040   0.045  16.357   8.480  0.1082 -0.0544  0.1567
    1W        W59041   2.176   7.771   6.331  0.0993 -0.1335  0.0281
    1W        W59042  21.499  28.663   6.959  0.2357  0.1532 -0.1504
    1W        W59043  14.676  18.269   8.913  0.0678 -0.1006 -0.2834
    1W        W59044   6.446   2.990   0.458 -0.0894  0.1039  0.1126
    1W        W59045   7.943  10.126   1.323  0.0980 -0.1374  0.4009
    1W        W59046   8.361  14.661   8.139  0.0068  0.1018  0.4495
    1W        W59047   8.478  19.957   1.793  0.3259 -0.1258 -0.0475
    1W        W59048   0.166  16.991   1.324  0.0964 -0.0537  0.0804
    1W        W59049   0.401   1.423   2.550  0.1656  0.1431  0.0223
    1W        W59050  20.799  25.824   2.164 -0.1415  0.1476  0.0938
    1W        W59051  17.378  22.280   8.669  0.1540  0.0471  0.0774
    1W        W59052  27.791   0.074   9.039 -0.2100 -0.1648 -0.3627
    1W        W59053  29.791  14.037   7.829 -0.0926 -0.0590 -0.3439
    1W        W59054   9.605   1.882   3.232 -0.0799 -0.2479  0.1967
    1W        W59055  10.676  29.407   2.385 -0.3190  0.0835 -0.1706
    1W        W59056  20.450  12.154   1.189  0.2886 -0.1238  0.0370
    1W        W59057   8.852  27.806   1.022  0.1431 -0.0512 -0.1810
    1W        W59058  15.380  21.253   7.229  0.3155 -0.3806 -0.2219
    1W        W59059  25.988   6.055   7.707  0.0889 -0.0924 -0.0254
    1W        W59060   0.251  10.353   0.064  0.0739  0.1907 -0.1341
    1W        W59061  16.233  19.901   0.561 -0.1345 -0.4508 -0.2716
    1W        W59062  25.742   6.612   1.275 -0.2851 -0.1581  0.0530
    1W        W59063  15.021  14.154   0.097 -0.0780 -0.1123  0.0115
    1W        W59064  29.037  19.223   0.386 -0.2408 -0.0272 -0.2510
    1W        W59065   8.587   2.110   2.506 -0.0810 -0.0235  0.2075
    1W        W59066  25.125  14.627   7.332 -0.1244 -0.3537  0.0054
    1W        W59067   3.292   2.301   2.012 -0.2810 -0.1096  0.0861
    1W        W59068   0.476   2.526   2.836  0.2312 -0.0864  0.1506
    1W        W59069  23.699   8.823   1.441 -0.0450  0.3351  0.1647
    1W        W59070   0.964   9.296   8.005 -0.1339  0.1624 -0.0337
    1W        W59071  17.295  29.196   0.355 -0.2654  0.2473 -0.2900
    1W        W59072   2.045  10.222   6.955  0.1305  0.0133 -0.0653
    1W        W59073   2.278   3.481   2.785 -0.0858  0.0577  0.1143
    1W        W59074  17.561  26.778   6.612 -0.4396 -0.1367  0.2778
    1W        W59075   4.846  28.864   7.180 -0.0721 -0.2619  0.1251
    1W        W59076  17.940  26.240   3.664  0.0024 -0.1469 -0.2188
    1W        W59077  27.094   3.264   6.476  0.0302 -0.2773 -0.0159
    1W        W59078  29.279  22.537   2.099 -0.1768 -0.0623 -0.5502
    1W        W59079  24.761  25.327   7.148 -0.2425  0.1409  0.0639
    1W        W59080  16.787  25.682   8.863  0.1480 -0.0749 -0.1977
    1W        W59081  10.328  20.224   8.502 -0.1628  0.3048 -0.0024
    1W        W59082  11.891  23.722   7.908 -0.0367 -0.0183 -0.2070
    1W        W59083   9.839  16.717   1.297 -0.0378  0.0454 -0.2544
    1W        W59084   6.770  10.460   1.889  0.0030 -0.0958  0.1806
    1W        W59085  27.844   2.022   7.266 -0.1675  0.0631 -0.0049
    1W        W59086   9.630  20.302   9.228  0.0230  0.2518  0.0155
    1W        W59087  24.429   6.475   1.118 -0.2879 -0.1681  0.1564
    1W        W59088  23.607  19.555   7.604 -0.2484 -0.1259 -0.0973
    1W        W59089  13.619  20.238   7.603  0.2943 -0.0673  0.4259
    1W        W59090  28.689   9.625   1.796 -0.3058 -0.0727  0.0885
    1W        W59091  27.951  15.523   0.498 -0.2606 -0.2128 -0.0001
    1W        W59092  25.246  16.088   6.655 -0.0167  0.2049 -0.0620
    1W        W59093  19.270  27.009   3.113  0.0205  0.1717  0.2516
    1W        W59094   7.598   8.722   7.532 -0.0172  0.4148  0.2680
    1W        W59095   4.168  27.603   8.791 -0.0044  0.2573  0.3089
    1W        W59096  18.680  24.821   2.563 -0.1871  0.0243 -0.0824
    1W        W59097   8.573  22.468   7.000  0.1938 -0.0602  0.3411
    1W        W59098   4.408  14.192   5.743 -0.3438  0.2544  0.1525
    1W        W59099  29.164  13.427   6.462 -0.0575 -0.0214  0.1127
    1W        W59100  16.424  20.683   7.137  0.0363 -0.0645  0.3776
    1W        W59101  24.451  16.242   7.249 -0.0580 -0.1948  0.0977
    1W        W59102   0.936  24.685   1.632  0.3192  0.2051  0.2301
    1W        W59103   6.065  21.707   7.540  0.0682 -0.0629 -0.0395
    1W        W59104   6.481  26.064   6.647  0.0978  0.0977 -0.2141
    1W        W59105   4.707  20.660   0.932  0.1356  0.0298  0.0887
    1W        W59106  23.730  15.113   6.754 -0.3762  0.0953  0.1468
    1W        W59107   4.348  24.965   0.006  0.1194 -0.3038  0.2989
    1W        W59108  11.776  13.767   2.064 -0.2473  0.1615 -0.4893
    1W        W59109  18.759  15.525   0.532  0.2223  0.1854 -0.1697
    1W        W59110   6.824   4.176   9.136  0.1012  0.1298 -0.3494
    1W        W59111  27.475   9.509   0.748 -0.2737  0.1094 -0.2668
    1W        W59112   9.565  26.408   7.116  0.0985  0.2013 -0.1746
    1W        W59113  15.810   4.307   8.039 -0.4020  0.0422  0.1489
    1W        W59114  23.622  18.557   7.048  0.0707  0.1361  0.0907
    1W        W59115  14.880  23.337   1.664 -0.1270 -0.0885 -0.0073
    1W        W59116   3.175  26.501   8.681  0.0123  0.0567  0.0188
    1W        W59117  13.623  21.840   1.587 -0.0989  0.1646 -0.0032
    1W        W59118   7.973  19.266   0.113 -0.1793  0.0406  0.1452
    1W        W59119  26.807  26.959   2.155 -0.0870  0.0055  0.2616
    1W        W59120   3.263   2.383   7.255  0.1241 -0.2590  0.0419
    1W        W59121  10.782   4.080   3.924 -0.2534  0.0675  0.0732
    1W        W59122   8.827  17.815   0.576 -0.2005 -0.2558  0.0833
    1W        W59123  27.108   1.669   8.773  0.0744  0.3137 -0.0646
    1W        W59124   3.698  18.018   1.177 -0.3155  0.2463 -0.2201
    1W        W59125  10.879  21.170   0.882  0.0574  0.2495  0.3058
    1W        W59126   2.841   0.771   1.212 -0.1470 -0.1166 -0.0877
    1W        W59127  29.201   1.579   6.462 -0.3314  0.0967 -0.1458
    1W        W59128  19.601   0.327   2.270 -0.1827  0.0840 -0.2338
    1W        W59129  25.316  12.876   8.624  0.0053  0.1480  0.3443
    1W        W59130   6.688  10.738   1.175  0.0852 -0.1808  0.1459
    1W        W59131  18.568  11.981   7.478 -0.0623  0.4516  0.2655
    1W        W59132  16.607   4.998   6.579  0.0439 -0.2071 -0.1933
    1W        W59133   0.275  21.875   1.460  0.1200  0.0493  0.1986
    1W        W59134  26.693   4.339   7.658 -0.0060 -0.0412 -0.0580
    1W        W59135  10.423  28.621   7.249 -0.0675 -0.0468 -0.2668
    1W        W59136  10.969  19.160   0.815 -0.0201 -0.1399  0.1065
    1W        W59137  12.010  25.313   8.110  0.2859  0.5428 -0.0989
    1W        W59138   4.323  24.569   8.947 -0.3050  0.1780  0.1608
    1W        W59139   5.189   7.301   9.230 -0.0417 -0.1150  0.0531
    1W        W59140   8.761  14.392   7.097  0.1281  0.0433 -0.0384
    1W        W59141   8.309  19.504   1.762  0.0038 -0.0776 -0.1336
    1W        W59142  18.306  24.347   9.435 -0.0285 -0.1183  0.2655
    1W        W59143   4.413  14.049   0.385  0.2750 -0.0751 -0.2267
    1W        W59144  26.832   5.122   1.752  0.0277  0.0671 -0.1179
    1W        W59145  24.755  10.753   2.079  0.1034 -0.1699  0.2771
    1W        W59146  29.661  10.580   0.998 -0.0529  0.1161  0.1190
    1W        W59147   7.537   1.117   2.369 -0.2173 -0.2098 -0.2249
    1W        W59148  19.019   9.918   7.339  0.0660 -0.1425  0.2557
    1W        W59149   9.102  24.550   9.226  0.1029 -0.2093  0.3955
    1W        W59150  26.652  20.189   0.377  0.0178  0.2438  0.1175
    1W        W59151  25.093  16.894   0.017 -0.2863 -0.0914 -0.1332
    1W        W59152  10.784   5.145   1.070  0.0561 -0.0295 -0.2842
    1W        W59153  26.912  23.078   6.545  0.0084 -0.3913  0.0007
    1W        W59154  15.042   9.806   8.056 -0.0036  0.1601  0.0388
    1W        W59155  18.027  21.312   1.830 -0.1259 -0.2528 -0.0924
    1W        W59156  21.660  16.288   7.376 -0.1839  0.1006 -0.3031
    1W        W59157  24.371  14.192   6.754 -0.0886 -0.1325 -0.0118
    1W        W59158   3.614  15.963   7.795 -0.3239  0.0647  0.0436
    1W        W59159  29.458  22.429   8.623 -0.0000  0.3060  0.0616
    1W        W59160  11.717  15.729   8.179 -0.1485 -0.1746  0.0769
    1W        W59161  14.352   4.543   7.078 -0.1951  0.4050 -0.1433
    1W        W59162  13.077  21.254   2.478  0.2163 -0.0026  0.0493
    1W        W59163  25.995  22.069   0.731  0.4589  0.2204  0.1340
    1W        W59164   3.163  20.170   7.031 -0.0081 -0.0322 -0.2634
    1W        W59165   5.073   6.208   3.217  0.1632  0.4420 -0.0868
    1W        W59166  17.446  18.432   7.276  0.1781  0.0409 -0.0269
    1W        W59167  13.706   2.929   2.846 -0.1796 -0.2376  0.4028
    1W        W59168  27.017  11.805   2.066  0.0744  0.0862  0.0493
    1W        W59169  14.091  17.458   2.304  0.0746  0.1801  0.2871
    1W        W59170  18.478  14.405   7.757  0.0180  0.0899  0.0086
    1W        W59171  13.782   0.443   0.258  0.2469  0.4271  0.1923
    1W        W59172  29.406  27.155   7.957  0.0297  0.0592  0.0849
    1W        W59173  29.093   0.295   8.041 -0.1580  0.1920  0.0424
    1W        W59174   1.156  28.896   9.281  0.1447 -0.1740  0.0611
    1W        W59175  12.634   7.445   1.526 -0.3660  0.1633 -0.0742
    1W        W59176  20.892   5.901   8.173  0.0480  0.0086 -0.0002
    1W        W59177  17.330  11.367   7.942  0.0640  0.1630  0.1167
    1W        W59178   3.008  28.880   7.906  0.1084  0.1966 -0.2286
    1W        W59179  26.047  10.217   9.129 -0.0455 -0.0361  0.0506
    1W        W59180   4.646  26.209   7.471 -0.2245  0.3297 -0.0896
    1W        W59181  24.587   8.655   6.953 -0.3209  0.0374  0.1015
    1W        W59182   7.181  23.458   7.367 -0.2380  0.0467  0.1660
    1W        W59183   1.610  23.990   8.456  0.0865  0.0377  0.0088
    1W        W59184  23.611  23.629   0.461 -0.1264  0.0517 -0.2330
    1W        W59185  17.114  24.763   7.291 -0.0414  0.1374  0.1407
    1W        W59186  25.186   5.862   0.853 -0.0334  0.3416  0.0668
    1W        W59187  26.187   9.351   8.335 -0.3449 -0.0132  0.0903
    1W        W59188  17.946  28.516   3.208  0.2593  0.3000 -0.1276
    1W        W59189  11.410   4.221   7.012 -0.0958 -0.0491 -0.0541
    1W        W59190  12.609   0.345   3.434  0.2864  0.0701 -0.1777
    1W        W59191  21.624  20.820   1.220  0.0203  0.0704 -0.0747
    1W        W59192  26.545  25.235   2.075 -0.3442 -0.1341 -0.0410
    1W        W59193  13.832   1.292   0.537  0.0293 -0.1405 -0.1555
    1W        W59194   3.160   9.968   3.215  0.2686  0.1151 -0.2710
    1W        W59195  23.909  15.937   8.823 -0.0325  0.0750 -0.0500
    1W        W59196  28.234  10.125   6.360  0.0829  0.0657 -0.0745
    1W        W59197  14.312   8.232   0.177  0.2374 -0.1865 -0.0402
    1W        W59198   2.750   2.258   7.302 -0.1188 -0.2274 -0.0200
    1W        W59199  24.680  18.759   9.298  0.4226  0.0710 -0.1680
    1W        W59200   1.678   6.179   3.433 -0.3076  0.1779  0.0356
    1W        W59201  25.577   7.328   9.411 -0.0831 -0.0531  0.0066
    1W        W59202  12.052   3.125   2.263  0.2507 -0.0531  0.2116
    1W        W59203  17.771   5.994   9.013 -0.0801 -0.2737  0.0495
    1W        W59204  10.180  29.597   0.702 -0.0033  0.2184  0.3390
    1W        W59205  29.710  25.021   7.080 -0.0663  0.0733 -0.0709
    1W        W59206  20.776  25.871   1.275 -0.0558 -0.0281  0.1108
    1W        W59207   3.759   6.284   3.196  0.0201 -0.0896  0.0650
    1W        W59208  22.251  29.182   8.374 -0.1661 -0.1290  0.2587
    1W        W59209   5.722  25.491   7.438  0.0252 -0.2424  0.3019
    1W        W59210   8.132  24.528   8.370  0.3369 -0.1441 -0.1026
    1W        W59211   0.583   2.297   9.443 -0.1033  0.0540  0.0267
    1W        W59212  20.926  11.924   7.491 -0.1301 -0.0603  0.3357
    1W        W59213  26.467  13.775   2.448  0.2718 -0.1164  0.0832
    1W        W59214   1.595  21.731   8.887  0.1836 -0.0882  0.4052
    1W        W59215   0.030   3.094   0.548  0.1654 -0.2063  0.2101
    1W        W59216   5.181  12.769   1.886 -0.2234 -0.2172 -0.2060
    1W        W59217  12.156   0.991   7.935 -0.1144 -0.1119  0.3387
    1W        W59218  29.122   4.974   0.744 -0.1439 -0.0604  0.2113
    1W        W59219   7.833   5.415   1.355 -0.0299 -0.0440 -0.2147
    1W        W59220   7.199   9.542   0.391 -0.0913  0.1588 -0.0408
    1W        W59221   9.827  16.921   7.348 -0.2511 -0.2222 -0.0637
    1W        W59222  12.986   7.857   0.166 -0.0247 -0.1992  0.1010
    1W        W59223  23.783   0.429   7.787  0.0464  0.2211  0.4851
    1W        W59224   8.375   3.677   0.786  0.0365 -0.0064 -0.0212
    1W        W59225  22.467  26.716   2.359  0.3169  0.0980 -0.0196
    1W        W59226  21.959   4.451   7.802 -0.1393 -0.0807  0.0446
    1W        W59227   5.568  18.038   1.391 -0.0169  0.2582  0.2178
    1W        W59228   1.309  10.916   6.626  0.1236  0.0641 -0.0076
    1W        W59229   5.285   5.519   0.852  0.0938 -0.0272  0.0002
    1W        W59230  19.374   8.158   1.814  0.0420  0.2258 -0.0102
    1W        W59231  16.349  24.518   0.668 -0.4006 -0.0830  0.2077
    1W        W59232   7.420  26.058   8.017  0.0332  0.1082  0.0171
    1W        W59233  22.801  21.342   1.591  0.2179  0.3859  0.1639
    1W        W59234  21.638  17.642   0.834  0.1389  0.0308  0.0299
    1W        W59235  12.958   6.795   7.936 -0.0424 -0.1327  0.2404
    1W        W59236  10.067  27.745   2.927 -0.0863  0.1854  0.1271
    1W        W59237   8.474  23.568   8.553  0.1683  0.1412 -0.1724
    1W        W59238  18.178   2.044   9.437 -0.1254  0.0942 -0.4268
    1W        W59239  12.986  21.712   5.856  0.0531  0.0555 -0.3132
    1W        W59240  27.397  21.097   2.252  0.1444  0.0822 -0.1547
    1W        W59241  18.073  24.819   0.042 -0.1248  0.1038 -0.0903
    1W        W59242  18.092  19.382   1.827 -0.1667 -0.3263  0.1227
    1W        W59243   1.733  14.794   2.145  0.3234 -0.0151  0.0651
    1W        W59244  11.614   1.393   2.969  0.0497  0.0276  0.0702
    1W        W59245  16.859  21.729   9.156 -0.2712 -0.0677  0.0947
    1W        W59246  28.455  27.220   0.108  0.1479  0.0436 -0.1080
    1W        W59247   1.574   8.978   3.001 -0.0012  0.0309  0.1047
    1W        W59248  14.913   5.180   8.088  0.2615  0.0318 -0.0248
    1W        W59249   0.444   9.666   6.827  0.0379  0.0796  0.0240
    1W        W59250   3.358   2.838   0.068  0.1333 -0.0195  0.1547
    1W        W59251  20.822   3.671   1.712 -0.3250 -0.1539 -0.0979
    1W        W59252  27.628   2.041   8.059  0.0197 -0.1762 -0.0178
    1W        W59253   3.382  19.661   9.281 -0.1531  0.0448  0.0939
    1W        W59254  24.133  18.160   2.611 -0.1119 -0.0579 -0.2518
    1W        W59255  22.351  11.180   2.598  0.0045 -0.1467 -0.0284
    1W        W59256  10.093   0.968   2.319 -0.2080  0.0714 -0.1871
    1W        W59257  11.888  26.961   2.441  0.0866  0.0654 -0.1368
    1W        W59258  14.278  11.661   2.001 -0.1292  0.2309 -0.2715
    1W        W59259  22.423   7.707   6.278 -0.1573  0.0673  0.1686
    1W        W59260  24.319  12.771   1.799  0.0359 -0.2453  0.0471
    1W        W59261   0.010  28.054   6.994 -0.0995 -0.3593 -0.0343
    1W        W59262  12.500  26.851   0.825 -0.0758 -0.0008 -0.1150
    1W        W59263  24.369  29.522   8.076 -0.1744 -0.0491  0.0590
    1W        W59264  21.750  24.972   1.692 -0.2360 -0.0859  0.1151
    1W        W59265   3.488  28.997   7.760 -0.0105  0.3400  0.0717
    1W        W59266  27.654  21.861   8.265  0.0864 -0.0705 -0.0071
    1W        W59267   5.519  18.396   8.868 -0.5257 -0.1806 -0.1815
    1W        W59268   1.485  10.574   8.033 -0.0901  0.0195  0.2122
    1W        W59269   8.248  16.095   7.629 -0.3277 -0.2079  0.1737
    1W        W59270  17.535   0.264   7.772 -0.1541  0.4127 -0.4047
    1W        W59271  16.051  10.013   0.745  0.0024  0.1470 -0.3578
    1W        W59272   3.491  14.021   0.392  0.3176  0.0139 -0.0395
    1W        W59273  17.733   4.516   7.788  0.0533 -0.0803  0.0058
    1W        W59274   5.107  18.336   6.418  0.1804 -0.1985 -0.1887
    1W        W59275  22.676   0.327   2.093  0.0078  0.0440 -0.0981
    1W        W59276   4.774   6.088   2.792  0.0182 -0.0383  0.0843
    1W        W59277  29.710   5.755   0.548  0.1168 -0.1207 -0.5917
    1W        W59278  17.057  19.484   0.906  0.0460  0.1360 -0.0447
    1W        W59279  29.515  24.954   1.759 -0.1526  0.0369  0.0321
    1W        W59280  16.701   8.308   8.631  0.2264  0.1630 -0.0810
    1W        W59281  24.501  11.845   7.755  0.1309 -0.0564  0.2229
    1W        W59282  22.611  26.391   1.510 -0.2847  0.1519  0.1109
    1W        W59283  18.211  21.512   0.561  0.0351  0.0582  0.0764
    1W        W59284  23.578  14.875   1.072 -0.0700 -0.1860  0.0485
    1W        W59285  11.557  13.210   8.368  0.1155  0.1009 -0.3420
    1W        W59286  19.186  28.610   0.842 -0.0139  0.3228 -0.7126
    1W        W59287   4.936  20.889   2.275  0.2095 -0.0434 -0.2096
    1W        W59288   7.983  15.997   0.684 -0.2296  0.0751 -0.0061
    1W        W59289  21.174   8.867   7.889 -0.4917  0.2503 -0.0571
    1W        W59290  22.789   8.130   1.886 -0.2408  0.0480  0.0804
    1W        W59291  14.691   5.929   3.096  0.0622  0.0976 -0.0332
    1W        W59292  24.896  18.351   6.517  0.0809  0.0565 -0.1876
    1W        W59293   7.429   5.639   1.323  0.0946 -0.0374 -0.2540
    1W        W59294  11.557   8.619   7.213  0.0182  0.0868  0.1053
    1W        W59295  13.016  20.584   8.172  0.0770 -0.0348 -0.1734
    1W        W59296  18.088  25.214   8.721  0.1965  0.0172  0.1452
    1W        W59297  19.846  18.986   1.662  0.0748 -0.3234 -0.1159
    1W        W59298  10.507  18.730   0.885 -0.0385 -0.1403  0.0383
    1W        W59299   0.942  22.898   0.929  0.1165 -0.1389 -0.0490
    1W        W59300   1.720  16.578   7.600 -0.0142 -0.2217 -0.0532
    1W        W59301  23.789  16.489   7.634 -0.0235  0.0959  0.0375
    1W        W59302   0.275   3.514   6.909 -0.3159  0.0200  0.1974
    1W        W59303  28.291  24.453   0.822  0.0573  0.1904  0.0595
    1W        W59304  24.697  25.541   8.139 -0.1333 -0.1702 -0.0119
    1W        W59305  13.891  21.933   7.082  0.0226  0.1188  0.0867
    1W        W59306  26.833   7.755   7.096 -0.0383 -0.0253 -0.1268
    1W        W59307  16.698   7.222   0.801  0.0910  0.1010  0.1702
    1W        W59308  19.608  18.656   0.039 -0.2015  0.0816  0.0474
    1W        W59309  28.166  24.885   8.005  0.0648 -0.0320  0.1615
    1W        W59310   3.814  20.605   7.828  0.2154  0.0237 -0.1746
    1W        W59311  17.986   7.363   9.202  0.0844 -0.0087  0.2177
    1W        W59312  25.559  11.877   0.133  0.0197 -0.1964 -0.1826
    1W        W59313  27.520  25.778   8.907 -0.0189 -0.0075  0.1107
    1W        W59314  12.136  14.056   8.374 -0.2263 -0.0744 -0.2243
    1W        W59315  10.607  20.687   2.152  0.2349 -0.0320  0.0982
    1W        W59316  26.698  13.072   0.776  0.1817  0.2055 -0.1515
    1W        W59317  22.032  24.639   7.271 -0.1262 -0.1840 -0.3152
    1W        W59318   7.484  13.585   1.126  0.0517  0.0396  0.0327
    1W        W59319   2.351  13.227   6.419  0.0209 -0.0123 -0.2007
    1W        W59320  28.066   7.915   8.231  0.0547  0.1648  0.0151
    1W        W59321   2.558  27.702   0.954  0.2508  0.0347 -0.0458
    1W        W59322   9.695   5.417   4.083  0.0084  0.1833  0.0361
    1W        W59323  26.487  13.556   8.474 -0.1618 -0.1538 -0.1394
    1W        W59324  19.391  22.137   8.862  0.0269  0.3702 -0.1468
    1W        W59325   2.174   3.581   8.996 -0.0712  0.1343 -0.0341
    1W        W59326  17.550  27.367   2.936  0.0534 -0.0419  0.0344
    1W        W59327  19.343   0.524   9.049 -0.2864 -0.1616 -0.3028
    1W        W59328  21.674  17.137   7.804 -0.3051 -0.3656 -0.2034
    1W        W59329   7.714  15.049   9.233 -0.0069 -0.0399  0.1701
    1W        W59330   2.608   7.463   3.336  0.1133  0.0284 -0.3002
    1W        W59331  14.857  15.533   0.420 -0.0155 -0.0466 -0.2698
    1W        W59332   9.646  19.207   7.764  0.0342 -0.0424 -0.0895
    1W        W59333  25.808   4.371   8.662  0.1001  0.1240  0.0014
    1W        W59334   2.056   8.228   8.483  0.0054  0.2048  0.1393
    1W        W59335  26.006   9.288   8.784  0.0649 -0.2560  0.0839
    1W        W59336  18.032   0.577   0.039  0.2192 -0.0610  0.1021
    1W        W59337  18.909   9.099   7.821 -0.1295 -0.2533  0.0183
    1W        W59338   3.348  28.005   8.066 -0.0611  0.3545 -0.0007
    1W        W59339  18.340   6.390   6.057 -0.0932  0.1135  0.0129
    1W        W59340  17.253   2.613   8.938  0.2322 -0.0711  0.1507
    1W        W59341   4.868  28.967   0.126  0.2131 -0.1178 -0.0229
    1W        W59342  22.709   0.129   7.293 -0.2270 -0.0447  0.2167
    1W        W59343  18.518   3.577   0.739 -0.4416  0.0529  0.0140
    1W        W59344   3.116  10.318   2.391  0.1180 -0.0997  0.1588
    1W        W59345   5.527  23.538   2.220 -0.0045  0.0543  0.1526
    1W        W59346  20.015  14.503   0.736 -0.1878  0.0035  0.2352
    1W        W59347  26.968  27.307   1.816 -0.0487 -0.0070  0.0820
    1W        W59348   0.071   3.609   6.462 -0.4328  0.1083  0.0504
    1W        W59349   9.477  25.920   1.293  0.1133  0.2470  0.0808
    1W        W59350   1.525  10.864   8.415 -0.2156  0.0900 -0.1202
    1W        W59351   9.000  26.080   7.027 -0.0363  0.1470  0.2243
    1W        W59352  16.989   9.670   6.848 -0.2022  0.2881 -0.0450
    1W        W59353   6.798  13.158   7.380 -0.2671 -0.1163 -0.0563
    1W        W59354  10.325  23.407   2.052 -0.0335 -0.2352  0.0167
    1W        W59355  11.744  19.721   0.630 -0.2939 -0.1262 -0.1441
    1W        W59356  14.779   8.198   7.389 -0.0782  0.3252  0.2033
    1W        W59357  10.003  17.840   6.453 -0.2683  0.1232  0.0581
    1W        W59358  17.107  10.089   1.618  0.0088  0.1098 -0.1334
    1W        W59359   2.147  27.767   0.550 -0.2174  0.2557  0.0960
    1W        W59360  16.075  21.559   7.384 -0.0325 -0.1014  0.1139
    1W        W59361   3.819  13.003   1.290 -0.2606  0.1374 -0.1298
    1W        W59362   4.943  10.661   8.608 -0.0272  0.2809  0.2805
    1W        W59363  21.329   4.568   9.228 -0.2301  0.4137  0.2877
    1W        W59364  16.205   9.191   7.273 -0.2291  0.0338  0.0489
    1W        W59365  27.530  24.778   6.952  0.1125  0.4854  0.0857
    1W        W59366  13.136  25.172   8.378 -0.2851 -0.1676 -0.1506
    1W        W59367  12.997   1.798   0.873  0.1845 -0.1734  0.0589
    1W        W59368  22.834  13.785   8.711 -0.1262  0.3050  0.0831
    1W        W59369  23.601  26.260   9.130  0.1697  0.1853 -0.0993
    1W        W59370  28.325   1.622   9.411  0.0883 -0.0285 -0.2472
    1W        W59371  21.435   7.779   7.591  0.3622  0.0276  0.0162
    1W        W59372   8.567  13.239   8.071 -0.0616  0.0454 -0.0428
    1W        W59373  21.070  26.745   4.546  0.0354  0.2399  0.0612
    1W        W59374  26.318  19.812   1.024 -0.0092 -0.0435 -0.2201
    1W        W59375  26.871  26.496   8.499 -0.0576  0.0162 -0.1114
    1W        W59376   2.052   8.666   8.102  0.0488  0.1940  0.1334
    1W        W59377   9.756   0.796   9.383 -0.1356  0.0806 -0.2231
    1W        W59378  26.493   4.409   8.137 -0.0741  0.0527  0.4143
    1W        W59379  21.626   7.403   7.289 -0.1433  0.0598  0.0450
    1W        W59380  13.949  19.249   0.514 -0.1923 -0.0213  0.1135
    1W        W59381  22.843   3.624   0.142  0.0974  0.2289 -0.0188
    1W        W59382  26.582   5.259   9.091 -0.4122  0.2615 -0.1137
    1W        W59383   5.892   8.309   0.824  0.1501 -0.1055  0.3115
    1W        W59384   1.327   8.246   6.696  0.0406 -0.1274 -0.1316
    1W        W59385  10.158  24.751   6.476 -0.3043 -0.1609 -0.0956
    1W        W59386  13.171  22.000   1.835 -0.0667  0.0770 -0.1181
    1W        W59387   2.018  12.664   7.479 -0.0173 -0.1917  0.0284
    1W        W59388   8.175  27.924   8.475  0.0376  0.2418  0.0926
    1W        W59389   9.317   5.456   3.067 -0.1788  0.0341 -0.0099
    1W        W59390  26.099  19.461   7.972  0.2330  0.0315 -0.1930
    1W        W59391  22.895  26.762   1.715  0.2178 -0.0898  0.1323
    1W        W59392   7.377  20.749   7.243 -0.2422  0.1653  0.1828
    1W        W59393  27.180  24.993   2.015 -0.0717 -0.3216 -0.1722
    1W        W59394  14.552  22.084   2.274 -0.1563  0.1893 -0.5041
    1W        W59395  20.076   9.738   6.526 -0.0995 -0.0305  0.1051
    1W        W59396  27.828   1.032   7.282 -0.2056 -0.0082  0.0646
    1W        W59397  26.310  26.434   0.499 -0.2250  0.2126 -0.2282
    1W        W59398  11.391  21.930   7.333  0.0452 -0.0427  0.1778
    1W        W59399  12.993  18.285   7.964  0.0114 -0.0076 -0.0948
    1W        W59400  19.952   5.264   7.219 -0.4417  0.3062  0.2622
    1W        W59401   4.099   1.122   2.434  0.0030 -0.2542 -0.0679
    1W        W59402  14.496  25.284   8.727 -0.1883 -0.0149 -0.3601
    1W        W59403   7.817   7.160   2.921 -0.0105  0.2146  0.1813
    1W        W59404  13.404  20.810   0.639  0.5489  0.0162  0.0341
    1W        W59405   3.335  11.015   9.324  0.3752  0.0179 -0.0548
    1W        W59406   1.837   7.726   0.477 -0.1763  0.1402  0.0710
    1W        W59407  24.526  27.353   2.333  0.1043  0.2934  0.0050
    1W        W59408  26.454  19.562   7.493  0.0839  0.1908  0.2878
    1W        W59409  16.979   8.628   2.574  0.0904 -0.1483  0.1192
    1W        W59410  21.941  25.329   2.953  0.1325 -0.0451  0.3283
    1W        W59411   2.772   4.901   0.465  0.0454 -0.1552  0.0651
    1W        W59412   4.278  22.701   5.825 -0.0194  0.0844  0.0169
    1W        W59413  12.663  12.779   2.242  0.0402 -0.2749 -0.1400
    1W        W59414   5.181  14.279   1.194  0.1107 -0.2667 -0.2090
    1W        W59415   6.900  15.485   1.960 -0.1268  0.3134  0.1028
    1W        W59416  25.822  29.642   7.591 -0.1156 -0.3012  0.1647
    1W        W59417  13.109  19.002   9.123  0.0855 -0.1617 -0.0142
    1W        W59418   1.926  11.302   5.963 -0.1619 -0.0748 -0.0951
    1W        W59419  27.359  26.782   6.756  0.1449  0.2077 -0.1350
    1W        W59420   3.168  12.441   9.280 -0.0359  0.0447  0.0011
    1W        W59421   1.617  25.531   8.324  0.0627 -0.0973 -0.1531
    1W        W59422  23.161  21.351   8.184 -0.2042  0.1356  0.2975
    1W        W59423  20.432  21.077   0.965 -0.2402  0.0781  0.1158
    1W        W59424   4.007  26.643   1.351 -0.0661 -0.1784  0.0500
    1W        W59425  11.832  19.771   8.476  0.2015 -0.3803 -0.0704
    1W        W59426   7.334   3.154   2.850 -0.3318 -0.0702  0.2651
    1W        W59427   5.806   2.452   3.045 -0.0068  0.0343 -0.1982
    1W        W59428  21.398  12.942   6.701 -0.3714  0.0789 -0.2673
    1W        W59429   4.440   3.653   9.386 -0.0578 -0.2835  0.2814
    1W        W59430  25.360   6.435   1.531  0.0541  0.0814  0.1941
    1W        W59431  29.731  27.784   1.464  0.2431 -0.3824  0.0201
    1W        W59432  21.046  14.990   2.229 -0.1010  0.1894 -0.0342
    1W        W59433  12.140  26.441   7.115  0.1547  0.0788 -0.2530
    1W        W59434  15.364  14.026   1.489  0.1765  0.0411  0.4338
    1W        W59435  14.596  15.797   1.301 -0.0351 -0.1147 -0.0847
    1W        W59436  21.523  19.588   9.448  0.1641 -0.2964  0.3167
    1W        W59437  24.448   8.835   1.305  0.2812 -0.4157  0.0703
    1W        W59438   6.228   3.481   0.323 -0.2840 -0.2235  0.0178
    1W        W59439  26.894  13.134   5.484  0.1313  0.1327 -0.0182
    1W        W59440  11.414  22.847   6.471 -0.1324  0.2491  0.2020
    1W        W59441  24.450  26.168   2.385 -0.1462  0.2198 -0.1564
    1W        W59442   6.052  18.726   6.592 -0.0790 -0.0150  0.2126
    1W        W59443   2.577  28.996   1.250  0.0026  0.0374  0.2702
    1W        W59444  22.537  28.657   7.013  0.0807  0.1348 -0.3481
    1W        W59445   8.171   3.542   8.354 -0.0784 -0.3947  0.0368
    1W        W59446  23.077   0.581   1.949  0.2617 -0.0360  0.2463
    1W        W59447   5.704   7.400   8.489  0.1738 -0.0598  0.1279
    1W        W59448   7.740  20.014   2.126  0.1678 -0.0773  0.3369
    1W        W59449   9.535  22.389   8.772  0.0360 -0.0782 -0.0857
    1W        W59450   6.893  10.685   7.883 -0.1519  0.0330  0.0505
    1W        W59451  14.872  22.377   1.323 -0.0325  0.0980  0.0096
    1W        W59452   0.199   6.495   9.341  0.0115  0.0743 -0.1514
    1W        W59453   5.825   0.033   1.710  0.0176 -0.1083  0.0568
    1W        W59454   3.105  14.733   7.363  0.2006  0.1075  0.1199
    1W        W59455  17.196  22.040   7.282  0.1040 -0.0708 -0.1371
    1W        W59456   2.192   3.289   8.081  0.1184  0.1157  0.1421
    1W        W59457  29.793  27.507   6.990  0.1996  0.0381 -0.0926
    1W        W59458  19.305  29.246   6.791  0.1148 -0.1413 -0.1937
    1W        W59459  17.264  19.784   8.386  0.1694  0.0422  0.0905
    1W        W59460   4.345  29.563   0.332  0.0142  0.1325  0.1390
    1W        W59461  18.708  17.497   9.395 -0.1976  0.0741  0.0001
    1W        W59462   1.733  12.108   2.681 -0.0878  0.0368  0.0327
    1W        W59463  26.495  18.897   6.256 -0.0701 -0.2116  0.0208
    1W        W59464   4.569   2.545   1.276 -0.1330  0.1945  0.3961
    1W        W59465  27.680   7.905   2.325  0.0123  0.1188  0.0821
    1W        W59466   5.331   3.262   1.771 -0.0917  0.2265 -0.1432
    1W        W59467  14.158   0.634   0.548 -0.2303  0.1502 -0.1623
    1W        W59468  20.077  21.516   2.878 -0.0419 -0.2020 -0.0836
    1W        W59469  18.673  16.763   7.134 -0.1083  0.0308 -0.0213
    1W        W59470  19.034  14.893   0.680 -0.0686  0.1763 -0.2957
    1W        W59471  11.746   5.224   1.405  0.4626 -0.0627  0.3723
    1W        W59472  10.041  26.788   0.329  0.0632  0.1562  0.0126
    1W        W59473   0.325  23.161   7.513 -0.4279  0.1252 -0.0600
    1W        W59474  22.579  13.164   0.719  0.1975  0.2208  0.2575
    1W        W59475  21.291   2.708   0.613 -0.2687  0.1266 -0.1722
    1W        W59476  26.118   1.641   8.831  0.0369 -0.2627 -0.1172
    1W        W59477   4.437  28.830   2.484  0.1168  0.2112  0.0828
    1W        W59478   3.766  15.625   8.248 -0.2963  0.4137 -0.1113
    1W        W59479   9.314  24.840   1.438  0.2204 -0.0523  0.0079
    1W        W59480  24.133   3.697   8.917 -0.2153  0.0955  0.1296
    1W        W59481  28.402   6.098   1.087 -0.0807 -0.0759  0.0421
    1W        W59482  22.326  12.895   6.119 -0.1020  0.1278  0.2571
    1W        W59483   0.308  10.484   7.218 -0.3519  0.0844  0.0949
    1W        W59484  10.591  14.920   8.962 -0.1028  0.1279  0.2527
    1W        W59485  20.263  25.878   8.049 -0.1384  0.2622 -0.0735
    1W        W59486   0.459   2.151   7.658  0.3433 -0.0686  0.0274
    1W        W59487  29.158  20.780   7.436 -0.0103  0.2382  0.1812
    1W        W59488  16.383  14.732   8.013 -0.0235  0.2733 -0.1654
    1W        W59489   3.705   3.022   3.161 -0.2528 -0.1134 -0.1795
    1W        W59490  19.551  29.450   1.588  0.0547  0.0020 -0.0028
    1W        W59491  15.761   6.129   6.669 -0.1049 -0.1009 -0.0410
    1W        W59492  12.724  16.427   8.648  0.0024 -0.1262 -0.0769
    1W        W59493  11.874  27.384   8.664 -0.0148 -0.0186  0.0132
    1W        W59494  12.926  20.847   6.247 -0.1646 -0.1319 -0.1527
    1W        W59495   4.556   3.691   2.768 -0.1019 -0.1190 -0.2981
    1W        W59496  14.333   6.198   1.927 -0.0122 -0.0145 -0.1329
    1W        W59497   9.378  14.019   7.623  0.1255  0.2650  0.1480
    1W        W59498   3.192   5.614   2.248 -0.0437  0.4271 -0.0285
    1W        W59499   8.402   5.780   2.074 -0.1233  0.0811 -0.0173
    1W        W59500  20.100  21.004   2.728 -0.0915 -0.0099  0.0215
    1W        W59501  12.967  29.807   0.080 -0.0283 -0.0438 -0.3161
    1W        W59502  24.778   1.839   8.615  0.2430 -0.0930 -0.0671
    1W        W59503  24.964  20.728   8.764  0.0446 -0.0716  0.2978
    1W        W59504  10.722  28.301   7.058  0.1087  0.1593 -0.0699
    1W        W59505   4.296   5.784   8.557  0.1733 -0.1302 -0.1381
    1W        W59506  10.429   0.998   8.244 -0.1997  0.2845 -0.1603
    1W        W59507  16.800  10.848   1.058  0.1421 -0.0006  0.1449
    1W        W59508   8.280  22.333   6.195  0.0199  0.3595 -0.1348
    1W        W59509  25.325  12.842   9.191 -0.2159 -0.0120  0.3338
    1W        W59510  26.870   5.535   7.190 -0.0146 -0.0179 -0.2062
    1W        W59511  14.387   2.094   0.761  0.4381  0.0358  0.0942
    1W        W59512  22.565  19.832   0.313  0.0277 -0.4080  0.4444
    1W        W59513   2.616  10.775   0.048  0.4796 -0.1897  0.2247
    1W        W59514  29.752  25.614   1.722  0.1072  0.0039  0.2303
    1W        W59515  28.208   9.198   2.005 -0.2179 -0.3062 -0.1770
    1W        W59516  23.604   0.014   7.677 -0.0843  0.0240  0.2367
    1W        W59517  17.050   2.672   0.410  0.0434  0.0016  0.1927
    1W        W59518  12.855   4.947   2.983 -0.0238  0.4177  0.2416
    1W        W59519  21.984   9.451   5.947  0.1738 -0.1807 -0.0610
    1W        W59520  26.137  26.682   7.798 -0.1394 -0.2993 -0.1408
    1W        W59521  17.909  25.070   0.927  0.0250  0.1185  0.1447
    1W        W59522  26.665  16.790   6.522  0.0429 -0.0297 -0.1701
    1W        W59523  17.045   1.470   1.470 -0.3883  0.0564 -0.0083
    1W        W59524  20.447   1.624   8.797  0.0040  0.1259 -0.0588
    1W        W59525   1.119   3.626   0.751  0.1025 -0.0936  0.2832
    1W        W59526   8.761  26.991   2.950 -0.1166 -0.1387  0.2006
    1W        W59527  18.520  20.223   1.468 -0.0876  0.0612  0.1298
    1W        W59528  27.481  23.035   5.842 -0.2228  0.0118 -0.0119
    1W        W59529  17.138  16.669   0.019 -0.1809 -0.0235 -0.1400
    1W        W59530  23.409   9.864   7.911 -0.1005  0.0998 -0.1375
    1W        W59531   3.810  11.565   0.511 -0.0540  0.1654  0.2845
    1W        W59532  28.423   0.741   3.089 -0.2181  0.3663  0.0212
    1W        W59533   8.779   0.765   1.284  0.3992  0.0407 -0.0513
    1W        W59534  23.569  22.980   2.063 -0.1827 -0.1849  0.1098
    1W        W59535   7.019   1.181   0.227 -0.0237 -0.1432  0.1351
    1W        W59536  20.582   3.356   0.953  0.0437  0.4821  0.3455
    1W        W59537   3.177  27.514   7.127  0.1298 -0.0880  0.1286
    1W        W59538  19.766  29.049   2.007 -0.1251  0.0814 -0.1231
    1W        W59539  26.648  27.402   8.935 -0.2414  0.3159 -0.0987
    1W        W59540   9.987  19.547   2.310  0.1330  0.3024 -0.2258
    1W        W59541  27.087  12.767   1.879  0.0107  0.2065 -0.0800
    1W        W59542  16.619  21.548   0.098 -0.0245  0.0144  0.0252
    1W        W59543  20.226  17.842   9.345  0.1468 -0.0612 -0.0159
    1W        W59544  22.809  11.016   7.114  0.0087 -0.1394 -0.2144
    1W        W59545   9.851   5.200   7.967  0.2289  0.3293 -0.0249
    1W        W59546  27.745   8.630   6.806 -0.0087  0.0043  0.2172
    1W        W59547  16.510   0.402   7.021  0.0570 -0.1617 -0.1571
    1W        W59548  17.138   1.742   1.961 -0.3331  0.3132  0.1750
    1W        W59549  16.432   0.086   8.261  0.1099 -0.0260  0.0154
    1W        W59550   7.514  10.351   1.387  0.0120  0.3062  0.1447
    1W        W59551  16.111  27.344   7.666  0.1249 -0.1876  0.1967
    1W        W59552  17.101   8.179   1.863  0.1146 -0.0312  0.3679
    1W        W59553   6.151  17.848   7.579  0.0842  0.0264 -0.0028
    1W        W59554   4.227   9.335   0.996 -0.2328 -0.2199 -0.0111
    1W        W59555   6.099  10.452   0.369  0.1675 -0.2945 -0.0613
    1W        W59556  28.779   0.217   8.449  0.0821  0.1816 -0.1656
    1W        W59557  17.568  19.636   2.516 -0.0357 -0.0263  0.2121
    1W        W59558  14.817  17.462   1.189 -0.2990 -0.0642 -0.1539
    1W        W59559  12.358  21.544   6.907  0.0781  0.2608 -0.0718
    1W        W59560  20.104  29.605   6.623 -0.2803  0.1054  0.2293
    1W        W59561  18.348  24.485   2.408  0.0340 -0.0794 -0.0866
    1W        W59562  11.534  23.284   7.721  0.0163 -0.3717  0.0673
    1W        W59563  28.258  20.028   0.370  0.2329 -0.2548 -0.1258
    1W        W59564  24.254  24.454   2.216  0.2357 -0.2996  0.1433
    1W        W59565   9.365  16.755   0.904 -0.0706 -0.2220  0.3789
    1W        W59566  17.765  29.575   9.104  0.1494 -0.1585 -0.0545
    1W        W59567  19.166  12.567   7.037 -0.1855  0.2041 -0.0846
    1W        W59568   1.787  11.145   2.852  0.1212 -0.4111 -0.0521
    1W        W59569  15.540   8.512   7.718  0.1475 -0.1948  0.0680
    1W        W59570  27.572   5.378   8.854 -0.0687 -0.1478  0.1413
    1W        W59571   4.291  10.037   7.854 -0.0763 -0.0518 -0.2881
    1W        W59572   5.580  16.049   8.406  0.1054 -0.0646  0.1844
    1W        W59573  10.856  11.502   0.595 -0.0057  0.1249 -0.1950
    1W        W59574  24.020  28.704   7.173  0.2324  0.1412 -0.0978
    1W        W59575   5.613   3.135   2.511 -0.0382  0.0652 -0.2116
    1W        W59576  26.537  12.905   6.842  0.3624  0.1495  0.2177
    1W        W59577  23.685   3.124   1.359 -0.0209 -0.0965  0.0703
    1W        W59578  27.891  29.139   1.366 -0.0023  0.0338  0.2108
    1W        W59579   3.795  16.791   0.775 -0.0193 -0.1866 -0.1192
    1W        W59580   5.027  13.902   0.316 -0.0645  0.1788 -0.1448
    1W        W59581  23.481  21.220   7.731  0.2154  0.2086 -0.0751
    1W        W59582  21.819  24.283   8.949  0.0641  0.0771 -0.0280
    1W        W59583  10.792  10.851   2.776 -0.1759  0.1915 -0.0185
    1W        W59584   3.239   4.765   2.351 -0.0620  0.0960  0.2173
    1W        W59585   8.061   0.419   8.253  0.1007  0.0311 -0.0944
    1W        W59586   5.216  15.637   9.290  0.2527  0.2016  0.4496
    1W        W59587   1.378  12.721   9.273  0.0416  0.3710 -0.0696
    1W        W59588  12.540   2.804   2.207 -0.0146  0.0964  0.2902
    1W        W59589  24.659  12.176   1.254 -0.1066  0.0438 -0.2250
    1W        W59590  18.551  28.017   1.347  0.1159 -0.0167 -0.1702
    1W        W59591   3.959  21.165   6.695  0.3129 -0.0203 -0.0129
    1W        W59592  12.133  17.910   2.117 -0.1262 -0.1083 -0.1182
    1W        W59593   2.204  20.266   9.103  0.1578  0.3236  0.0617
    1W        W59594  14.879  27.682   2.386 -0.0180  0.1118 -0.2587
    1W        W59595  28.665  22.240   8.653  0.1111  0.3458 -0.1056
    1W        W59596   7.104  26.309   7.655  0.1177 -0.2651  0.0634
    1W        W59597  29.133  15.505   2.043 -0.4334  0.1260  0.1346
    1W        W59598  27.311  14.648   6.833 -0.2265 -0.0295  0.1912
    1W        W59599  11.090  15.424   7.613  0.0403  0.1863  0.0954
    1W        W59600   8.178  19.172   8.646 -0.1350 -0.2353 -0.2103
    1W        W59601  16.074   8.848   8.342  0.2326  0.1686  0.2213
    1W        W59602  10.133  15.109   9.292  0.0006 -0.0211 -0.3611
    1W        W59603  27.794  29.768   6.935 -0.3127 -0.1334 -0.1267
    1W        W59604  26.207  11.881   8.835  0.0807  0.0457  0.2062
    1W        W59605  20.490   0.067   8.972  0.2210 -0.1058 -0.1080
    1W        W59606   1.095   3.587   8.754  0.3210  0.4971  0.0649
    1W        W59607  24.851  20.019   0.733 -0.1061 -0.0617 -0.0381
    1W        W59608  22.982  10.870   7.831 -0.0064 -0.4698  0.0450
    1W        W59609  23.421   1.140   8.803 -0.0582  0.4543  0.2195
    1W        W59610   2.236  25.264   6.252  0.1271 -0.1715 -0.0667
    1W        W59611  20.760  26.363   6.812  0.0484  0.0583 -0.3010
    1W        W59612  25.512  23.629   1.841  0.0260  0.4299  0.0479
    1W        W59613   8.779  11.212   0.438 -0.0829  0.1413  0.1418
    1W        W59614  26.607  13.666   0.678  0.0015  0.1046 -0.1938
    1W        W59615  11.528   4.145   2.209 -0.0874 -0.1120 -0.0077
    1W        W59616  29.592  27.881   8.778 -0.0763 -0.2658  0.1255
    1W        W59617  14.590  22.271   6.623  0.1500 -0.2615 -0.1004
    1W        W59618   4.468  28.479   8.916 -0.0061  0.0207  0.1832
    1W        W59619   5.798  15.878   8.864 -0.2045  0.0792  0.0321
    1W        W59620  14.289  16.013   1.616 -0.1145 -0.3175  0.1713
    1W        W59621  27.464  23.291   0.729  0.0117  0.1189  0.0540
    1W        W59622   4.455   5.190   3.066  0.0131 -0.0396 -0.0186
    1W        W59623   0.938  17.746   0.721  0.4365  0.0131  0.0825
    1W        W59624   8.530  11.723   2.513 -0.3570 -0.0837 -0.2469
    1W        W59625  28.183  13.275   6.920  0.0808  0.1852  0.3322
    1W        W59626   6.268  12.496   0.073  0.1970 -0.1293  0.1421
    1W        W59627  24.800  20.446   7.858 -0.2007  0.1879 -0.4348
    1W        W59628  19.751   0.469   0.355  0.4309 -0.1832  0.1064
    1W        W59629  16.827   0.257   2.378 -0.3463  0.2384 -0.1683
    1W        W59630  26.889   0.771   0.413 -0.3101  0.2169 -0.0488
    1W        W59631  16.155  23.205   0.141 -0.1363  0.1903 -0.3434
    1W        W59632  22.523  18.398   9.384 -0.0660 -0.1237  0.1731
    1W        W59633  20.382  25.418   0.728 -0.1775  0.1387  0.1409
    1W        W59634  26.001   9.324   7.213  0.1003 -0.2097 -0.1017
    1W        W59635  25.867   0.996   2.588  0.0870  0.0996 -0.3706
    1W        W59636  11.395  19.714   1.015 -0.1255 -0.3004  0.1997
    1W        W59637  18.908  20.149   7.118  0.0124 -0.2769 -0.0220
    1W        W59638   6.842   5.765   7.930  0.5042 -0.0465 -0.1476
    1W        W59639  17.237  11.796   6.927  0.0758  0.0640  0.2553
    1W        W59640   6.949   9.862   0.675 -0.2241  0.0596 -0.0070
    1W        W59641  23.269  14.842   6.778  0.1343 -0.0253  0.1466
    1W        W59642  19.707   0.778   8.790 -0.1537 -0.0759 -0.1398
    1W        W59643  10.531  21.210   1.392  0.0837 -0.0078 -0.0219
    1W        W59644  23.920  16.735   6.624 -0.1241 -0.1526 -0.2599
    1W        W59645  27.889  24.171   6.174 -0.2341 -0.0749  0.0569
    1W        W59646   0.233  26.945   6.191  0.0906 -0.1192 -0.3038
    1W        W59647   5.487  26.526   1.241  0.0802 -0.0020  0.0833
    1W        W59648   7.815   4.091   8.913  0.2689  0.1898 -0.1412
    1W        W59649  28.066  11.950   6.665  0.0226 -0.2302 -0.1475
    1W        W59650   6.965  17.504   1.895 -0.0045 -0.1324  0.0782
    1W        W59651  25.641  19.646   2.888  0.4061 -0.0689 -0.2123
    1W        W59652  24.509   5.782   1.909 -0.0371  0.1337  0.3216
    1W        W59653  13.952  28.981   7.963  0.0453 -0.0992 -0.2571
    1W        W59654  21.393   0.025   8.977  0.0771 -0.0363  0.1273
    1W        W59655   1.434   5.395   1.772  0.0907  0.0310  0.0884
    1W        W59656  26.023  20.080   2.680 -0.3169 -0.0671 -0.1731
    1W        W59657   7.749   1.087   8.832 -0.2979  0.1183  0.1225
    1W        W59658   7.474  12.783   7.234  0.2633  0.1244 -0.0916
    1W        W59659  19.846  13.257   0.929  0.1966 -0.2247 -0.0227
    1W        W59660  12.732  13.329   0.969 -0.0494  0.2105 -0.0332
    1W        W59661  10.001   5.063   1.747 -0.1017 -0.1462 -0.1544
    1W        W59662  14.787  27.228   7.949  0.2247  0.0398 -0.2061
    1W        W59663  12.020  25.922   0.953 -0.0597 -0.0781  0.1259
    1W        W59664  18.962  17.188   8.240 -0.0014 -0.0267  0.2497
    1W        W59665  20.792  28.259   7.653 -0.1636  0.2088 -0.0415
    1W        W59666   8.241  12.934   1.069 -0.0777 -0.0294  0.0327
    1W        W59667  16.465  16.535   7.417 -0.3477  0.5191 -0.2728
    1W        W59668  17.880   0.370   0.519 -0.0380  0.0075  0.2223
    1W        W59669  20.425   3.792   3.096  0.0194 -0.1525  0.0394
    1W        W59670   2.109  19.804   2.164 -0.2250  0.1734 -0.1370
    1W        W59671  18.463  16.147   1.205 -0.3682 -0.0885  0.0039
    1W        W59672   7.426  18.817   8.554 -0.2141 -0.2089 -0.2122
    1W        W59673   2.158   8.007   0.249 -0.0070  0.1952 -0.1047
    1W        W59674  23.331  20.635   8.426  0.3194 -0.2388 -0.1981
    1W        W59675  19.562  29.071   8.508 -0.0718 -0.0583  0.1431
    1W        W59676  23.303  25.580   1.362 -0.0028 -0.3153 -0.2034
    1W        W59677  10.972  13.478   2.415 -0.0574  0.3852 -0.0117
    1W        W59678  27.557  26.815   8.422 -0.0598 -0.0788  0.1396
    1W        W59679  25.316   3.373   3.228 -0.0374  0.0391  0.0987
    1W        W59680  27.337  10.330   6.727  0.0561 -0.1745 -0.0388
    1W        W59681  23.402  26.550   0.280 -0.0435 -0.0116  0.1284
    1W        W59682  17.261  13.572   6.617  0.2381  0.1282 -0.0750
    1W        W59683   0.209  10.844   9.439  0.2461  0.1251 -0.0466
    1W        W59684   0.899  27.089   0.529  0.1386 -0.0943 -0.0596
    1W        W59685  17.791  23.458   1.620 -0.1509  0.1111 -0.2024
    1W        W59686  14.515   2.635   2.366 -0.1594  0.1145  0.1950
    1W        W59687  15.371  15.213   1.591 -0.0276  0.2050 -0.0256
    1W        W59688   3.832  26.718   2.016 -0.0082  0.1435  0.2113
    1W        W59689  26.614  27.807   2.709 -0.0805 -0.0520  0.0843
    1W        W59690  29.691  11.176   8.563  0.0488 -0.1246 -0.0528
    1W        W59691   9.269   0.995   7.098  0.3003  0.0385 -0.1329
    1W        W59692  27.489   0.689   1.520  0.1246  0.2422  0.2754
    1W        W59693   4.466  10.452   7.709  0.1318  0.2183  0.2110
    1W        W59694  18.264  27.336   1.047 -0.2358 -0.2070  0.2815
    1W        W59695  15.564  26.594   2.716  0.1192  0.3194 -0.0012
    1W        W59696  24.086   7.936   1.518 -0.3715  0.1210 -0.0284
    1W        W59697  13.154  27.867   2.332 -0.0324  0.1485 -0.0333
    1W        W59698   0.676  10.121   2.674 -0.0219 -0.0647  0.2188
    1W        W59699   1.937   8.071   1.949 -0.2896 -0.0800  0.0955
    1W        W59700  27.004  28.647   1.184 -0.0182 -0.0883  0.1454
    1W        W59701  24.896   9.840   0.463  0.2067 -0.1426 -0.3107
    1W        W59702  10.950  27.348   2.454  0.0771 -0.0459 -0.2243
    1W        W59703  16.703  19.340   0.439 -0.3045  0.0073 -0.1283
    1W        W59704   6.957   9.244   0.064 -0.0468 -0.0909  0.1970
    1W        W59705  29.609  25.745   8.070  0.0080  0.2121 -0.1848
    1W        W59706  18.195  21.297   2.302  0.0843 -0.0144 -0.1696
    1W        W59707  18.730  21.546   0.678  0.2320  0.2422  0.2195
    1W        W59708  13.058  25.473   7.575  0.2221  0.2415  0.1212
    1W        W59709   2.697  27.023   1.398 -0.3450  0.0126  0.1619
    1W        W59710  10.250  20.485   0.050  0.0567  0.1236  0.1105
    1W        W59711  10.959  10.762   8.961  0.2090  0.2301 -0.0083
    1W        W59712   6.683   4.184   3.313  0.0362  0.0230 -0.0012
    1W        W59713  27.253  10.624   9.152  0.0046 -0.1835 -0.0386
    1W        W59714   9.479   4.866   8.093 -0.0211 -0.2420  0.2077
    1W        W59715   3.938   1.626   8.331  0.0400  0.0957  0.1152
    1W        W59716   5.917  22.648   5.829 -0.0596 -0.0397 -0.0284
    1W        W59717  19.527  19.192   2.815  0.0123 -0.0054 -0.1266
    1W        W59718   1.394   3.836   8.395  0.0212  0.2622  0.2490
    1W        W59719  15.879  16.479   7.235  0.0610  0.1095  0.2193
    1W        W59720   7.572  20.838   7.735 -0.1744 -0.2122  0.0531
    1W        W59721  22.292   6.214   9.265  0.0431 -0.0319 -0.1138
    1W        W59722  24.832  26.513   0.405  0.4259 -0.2075 -0.0725
    1W        W59723   7.328  23.766   1.894 -0.0431  0.3469 -0.0486
    1W        W59724  10.885  12.256   1.092 -0.0623 -0.1898 -0.0753
    1W        W59725  29.717  20.386   0.400  0.0168 -0.2594  0.0368
    1W        W59726   3.929   1.587   2.815  0.2455  0.0153 -0.1032
    1W        W59727  11.549  28.757   8.427 -0.2117 -0.1488 -0.0298
    1W        W59728   7.559  24.445   9.450  0.0330  0.0320 -0.2977
    1W        W59729  19.996   0.363   3.411  0.1086  0.0717  0.0304
    1W        W59730  13.406  27.532   8.875  0.2916 -0.5000 -0.0490
    1W        W59731  26.988  29.020   0.783  0.1421  0.3230  0.2044
    1W        W59732   3.444  26.023   6.155 -0.2540 -0.1722 -0.2203
    1W        W59733  12.019   3.159   6.785 -0.0273  0.0608 -0.2938
    1W        W59734   3.377   0.833   0.037 -0.0767  0.1847  0.0967
    1W        W59735  18.678  14.342   7.260  0.1240 -0.1569  0.2289
    1W        W59736  16.575   8.880   0.066  0.1102 -0.4441 -0.1387
    1W        W59737   8.689   3.901   8.550 -0.1841  0.1203  0.2424
    1W        W59738   8.758  20.198   0.916  0.0572  0.0640  0.0285
    1W        W59739  19.777   7.890   1.986  0.2003  0.0221  0.1749
    1W        W59740  22.704  10.457   8.122  0.2139  0.0388 -0.3462
    1W        W59741  24.418  14.475   9.152 -0.0962 -0.3900  0.2020
    1W        W59742  15.266  26.913   1.558 -0.0140  0.0230 -0.0127
    1W        W59743  27.821  29.434   2.232 -0.2082 -0.0608 -0.0639
    1W        W59744  21.623  16.134   6.805 -0.3447  0.1850  0.1550
    1W        W59745  16.587   5.528   0.317 -0.3107  0.1509  0.1103
    1W        W59746   2.601  13.510   1.354 -0.1107 -0.1294 -0.0661
    1W        W59747  29.396  16.632   6.269  0.0965 -0.1709 -0.3413
    1W        W59748  15.756   4.308   2.019 -0.1605  0.2080  0.0392
    1W        W59749  14.202  11.967   8.764 -0.1848  0.1416 -0.0893
    1W        W59750  21.213  25.469   1.475 -0.2039 -0.0478 -0.0626
    1W        W59751   0.638   7.635   0.548  0.1169  0.0289  0.1079
    1W        W59752   8.018  26.729   8.616 -0.1908  0.1754  0.1027
    1W        W59753   5.695  29.488   1.965 -0.2305  0.0123 -0.1304
    1W        W59754   8.379  15.421   8.503 -0.0826 -0.0172 -0.1195
    1W        W59755  25.915  11.947   0.494 -0.5626 -0.1078 -0.0298
    1W        W59756  11.728  12.932   8.841  0.2225  0.0065  0.1308
    1W        W59757  10.212   5.664   7.885 -0.0582 -0.1694  0.0205
    1W        W59758  14.067   2.736   9.061  0.3855 -0.2217  0.2536
    1W        W59759  16.377  17.009   0.353 -0.0669 -0.0950 -0.3943
    1W        W59760  12.855  22.496   1.083  0.1824  0.2574  0.1119
    1W        W59761  12.905   9.811   0.091 -0.1017 -0.0415  0.0006
    1W        W59762   1.238   8.731   6.809 -0.0893 -0.2689  0.0527
    1W        W59763  12.384   1.177   1.212  0.0322 -0.0374 -0.3383
    1W        W59764   8.071  23.485   2.453 -0.0036  0.0664 -0.0864
    1W        W59765  13.651  23.741   7.486 -0.2734  0.0789 -0.1358
    1W        W59766  28.587   7.184   9.229 -0.4484  0.4143 -0.4802
    1W        W59767  15.420  23.603   8.605  0.0316 -0.0435 -0.2112
    1W        W59768  14.620  29.038   0.240 -0.2059  0.1175 -0.1117
    1W        W59769  22.120   8.678   7.070  0.1260 -0.2332  0.1390
    1W        W59770  25.845  10.895   1.126 -0.2038 -0.0170 -0.0047
    1W        W59771  13.486   5.382   9.305 -0.1037 -0.3888  0.2956
    1W        W59772  11.685  12.471   7.949  0.2638 -0.0443  0.0697
    1W        W59773  25.710  18.456   6.432  0.0348 -0.3778  0.1473
    1W        W59774   8.093   8.557   7.492  0.0608  0.0384 -0.0574
    1W        W59775   5.541   1.949   9.418 -0.0640  0.0082 -0.0539
    1W        W59776   2.143   1.796   7.597 -0.0140  0.1069 -0.1474
    1W        W59777  23.909  15.770   0.933 -0.4572  0.3022  0.1617
    1W        W59778   5.038   5.610   8.068 -0.0802 -0.0071 -0.1151
    1W        W59779   7.805  11.314   8.531  0.1543 -0.0992  0.3332
    1W        W59780  12.782   8.004   2.638 -0.0444 -0.2907 -0.2841
    1W        W59781  24.516   5.183   2.773  0.3132 -0.1653  0.0109
    1W        W59782  23.658   0.962   3.800 -0.3694  0.4011 -0.2049
    1W        W59783   3.721   6.585   8.694 -0.0253  0.1024  0.2700
    1W        W59784  25.746  28.614   2.891 -0.0035 -0.0700 -0.1208
    1W        W59785   1.747  18.695   7.001 -0.0615  0.1120 -0.0456
    1W        W59786  18.720  18.129   1.073 -0.0601 -0.3202  0.1919
    1W        W59787  12.829  15.785   8.109 -0.0123  0.3132  0.2248
    1W        W59788   5.050  21.836   8.802 -0.2686  0.0814  0.0063
    1W        W59789   6.398  23.193   1.000 -0.1924 -0.1179  0.1021
    1W        W59790  18.367  17.520   7.562 -0.1813 -0.1167 -0.0904
    1W        W59791  13.055  11.564   0.271  0.1124  0.0578  0.2894
    1W        W59792  16.687  25.020   8.018  0.0848  0.1534  0.1689
    1W        W59793  22.201  26.600   7.191  0.0028  0.1901 -0.2445
    1W        W59794  17.477  28.505   2.274  0.0167  0.0798  0.2245
    1W        W59795  26.468  16.242   0.333  0.0625 -0.0995  0.0793
    1W        W59796  12.209  20.302   1.857  0.1121  0.1401  0.0561
    1W        W59797   2.985   2.769   0.457  0.2354 -0.0827  0.1448
    1W        W59798  20.447  10.407   0.992 -0.0913 -0.1718  0.0427
    1W        W59799  28.099  14.264   0.123 -0.0647  0.1406 -0.1313
    1W        W59800  28.241  18.678   7.459 -0.4106  0.2592 -0.1505
    1W        W59801  25.444   1.254   8.422  0.0850  0.0341  0.1803
    1W        W59802  13.997   5.596   2.618  0.0550 -0.1373  0.1779
    1W        W59803   2.023  23.529   7.363 -0.1023  0.1917  0.0576
    1W        W59804  28.337   1.864   7.301  0.0226  0.1684  0.1592
    1W        W59805  26.189  27.808   0.567 -0.1138  0.3002  0.3762
    1W        W59806  26.624  25.723   2.703  0.0468  0.3612 -0.0629
    1W        W59807  24.684  21.718   0.182  0.1801 -0.0382  0.0405
    1W        W59808  18.732  20.920   0.348  0.0475 -0.3939  0.0988
    1W        W59809   5.128  24.995   9.031 -0.0440 -0.2156  0.0704
    1W        W59810  25.500  15.310   1.701 -0.1041 -0.1422 -0.1469
    1W        W59811  21.281   2.638   0.099 -0.1668  0.1394  0.0900
    1W        W59812   0.536  17.169   7.069 -0.2102 -0.0283 -0.1410
    1W        W59813  14.260  16.079   9.454 -0.1030  0.1181  0.0866
    1W        W59814   6.311   4.224   8.377 -0.0534 -0.4709  0.1943
    1W        W59815   6.549  10.362   1.448  0.0845 -0.1533  0.1466
    1W        W59816  14.472  29.112   3.042 -0.1686 -0.0007 -0.1224
    1W        W59817  26.009  28.496   8.861  0.1282  0.0459  0.2294
    1W        W59818  27.993  12.653   2.024 -0.1129 -0.1414  0.1367
    1W        W59819   5.892   4.486   7.424  0.2637 -0.0106  0.0008
    1W        W59820   4.879  25.088   6.783  0.0931  0.0617  0.0669
    1W        W59821   5.047  13.279   1.631  0.3897 -0.1156 -0.1616
    1W        W59822  20.119  22.015   0.517 -0.2457  0.0767  0.3253
    1W        W59823  26.870  10.112   8.062 -0.0952  0.1074  0.0942
    1W        W59824  17.343  11.463   1.663 -0.3297 -0.0633 -0.0457
    1W        W59825   8.696  12.791   1.486  0.1555 -0.1016 -0.2796
    1W        W59826   1.120  12.306   7.208  0.4064 -0.2896 -0.0606
    1W        W59827   4.361  12.093   1.300 -0.0687  0.0130  0.1426
    1W        W59828   4.043   0.195   0.477 -0.2483 -0.3302  0.1379
    1W        W59829  11.003  21.788   0.829 -0.2950 -0.1937  0.0006
    1W        W59830  11.178   3.456   1.486 -0.2769 -0.0420 -0.0234
    1W        W59831   2.023  17.972   2.038 -0.1977  0.0161  0.0900
    1W        W59832  16.582   3.703   6.206  0.0092 -0.0075 -0.2897
    1W        W59833   9.932  17.241   6.889  0.4940  0.3505  0.2314
    1W        W59834  18.153  19.721   9.247  0.0474  0.1825  0.1542
    1W        W59835   9.670  20.240   0.328 -0.0484 -0.0759  0.0181
    1W        W59836   7.036  19.082   8.337  0.0498 -0.0046  0.1595
    1W        W59837  10.938   9.059   1.734 -0.2426 -0.0760  0.0496
    1W        W59838  17.228  14.942   2.116 -0.0149 -0.1285  0.0193
    1W        W59839  11.447  12.840   1.163 -0.2251  0.1145  0.2174
    1W        W59840   4.987  13.557   0.692  0.1290  0.0226 -0.3158
    1W        W59841  22.093   1.663   8.173 -0.0612  0.1597  0.0103
    1W        W59842   3.266  20.052   0.767 -0.0732 -0.3119 -0.0471
    1W        W59843   1.414  18.015   0.143 -0.0858  0.3398 -0.1129
    1W        W59844  20.496  23.822   1.152  0.1500  0.0613 -0.5255
    1W        W59845  16.792  17.093   8.256  0.0282 -0.0221 -0.1945
    1W        W59846   1.597   4.569   1.389  0.0443 -0.2899  0.0323
    1W        W59847  17.654  16.942   1.918  0.0142  0.1823 -0.0731
    1W        W59848   5.517  23.945   1.804  0.0076 -0.0111  0.2172
    1W        W59849  22.557  15.845   0.062 -0.2557  0.1162 -0.1173
    1W        W59850   8.283  22.096   7.923  0.0208  0.1514  0.1349
    1W        W59851  27.320  22.607   6.856 -0.1180 -0.3190  0.2319
    1W        W59852  28.628  14.788   7.731  0.1106 -0.0521  0.1192
    1W        W59853   8.662  12.291   9.443  0.3761  0.2720  0.0596
    1W        W59854  15.012   8.066   0.552  0.0691  0.1003  0.0727
    1W        W59855  17.474   7.998   2.646 -0.0995 -0.0849  0.1077
    1W        W59856   1.441  27.496   2.233 -0.0902  0.1326  0.1023
    1W        W59857  18.748   6.277   2.259  0.1077  0.3916  0.1443
    1W        W59858  14.608  15.123   0.060 -0.1774 -0.2175 -0.1346
    1W        W59859  21.439   3.290   7.980 -0.0566 -0.3599  0.1468
    1W        W59860  11.245   7.118   6.830 -0.0147  0.1472  0.0845
    1W        W59861  19.702  14.579   7.576 -0.0734  0.1957  0.1569
    1W        W59862  18.001   6.464   8.937 -0.3021 -0.2231 -0.0017
    1W        W59863  28.675  12.326   8.420  0.1669  0.0851 -0.2103
    1W        W59864   2.467  10.370   7.125  0.0227  0.0448  0.0185
    1W        W59865  15.297  16.697   8.040  0.1437 -0.1129  0.1064
    1W        W59866   6.443  12.449   1.302  0.1054  0.0830  0.0192
    1W        W59867  27.710   2.243   2.439  0.0015  0.2124 -0.3144
    1W        W59868   5.335  14.685   1.893  0.2902 -0.0697 -0.1552
    1W        W59869  11.273  11.651   2.475  0.0007  0.1349 -0.0113
    1W        W59870  19.759  18.577   8.163  0.1332  0.0710 -0.2393
    1W        W59871  27.048   2.005   9.138  0.1673 -0.0580  0.2870
    1W        W59872  19.078   4.959   6.346  0.1278  0.0460  0.0186
    1W        W59873   2.877   6.930   1.515  0.0465 -0.0347  0.2769
    1W        W59874  17.989   3.409   9.147  0.0196 -0.1531 -0.1332
    1W        W59875  25.733   4.195   6.794 -0.0291  0.0569 -0.0573
    1W        W59876  14.024   8.057   0.641  0.2895  0.1235  0.2898
    1W        W59877  12.972   1.059   9.416 -0.1051 -0.1720 -0.3390
    1W        W59878  17.646  26.123   0.790 -0.0161 -0.5754  0.1242
    1W        W59879  14.818  26.843   6.830  0.3394  0.0234  0.1836
    1W        W59880  25.480   0.219   7.641 -0.0650 -0.1161  0.1151
    1W        W59881   7.776  23.160   9.425 -0.1072 -0.2079  0.1747
    1W        W59882  26.204   6.872   1.375 -0.1636 -0.0047 -0.0059
    1W        W59883   3.990  18.001   6.806 -0.1893  0.1110 -0.0996
    1W        W59884  15.406   4.868   2.442 -0.3490 -0.3667 -0.2061
    1W        W59885  13.212  22.034   7.736 -0.0131  0.0109 -0.1942
    1W        W59886  17.823  20.422   7.354  0.1433 -0.1630 -0.4209
    1W        W59887  14.093  18.691   8.548  0.1457  0.0901 -0.0243
    1W        W59888  21.172  15.398   0.730 -0.0099  0.1504  0.3806
    1W        W59889  27.938  11.567   8.414 -0.1233  0.0851  0.0838
    1W        W59890  20.773   4.613   8.578 -0.1189 -0.2361 -0.0335
    1W        W59891  22.399  17.606   8.942 -0.1583 -0.0888  0.1712
    1W        W59892   1.553  10.306   2.537  0.2660 -0.2511 -0.2007
    1W        W59893  17.985  22.124   8.429 -0.2667  0.0453 -0.2302
    1W        W59894   7.396   0.641   2.406  0.0636  0.2027 -0.0085
    1W        W59895   4.650  21.907   1.064 -0.0912 -0.3355  0.0233
    1W        W59896  15.506  28.068   1.377  0.0147 -0.0887 -0.0264
    1W        W59897   7.664  27.056   8.852  0.0977  0.1121 -0.1278
    1W        W59898  17.966  15.498   0.716 -0.2467 -0.0461  0.2600
    1W        W59899  15.309  26.686   0.162  0.2449  0.1520  0.0353
    1W        W59900   1.669  21.194   0.886  0.0372  0.0063 -0.0736
    1W        W59901  24.459  13.246   6.657 -0.1069  0.1772 -0.0229
    1W        W59902  18.715  13.168   9.105  0.0355  0.0544  0.0526
    1W        W59903   9.517   0.031   2.131 -0.2314 -0.1027  0.3722
    1W        W59904   4.317  13.744   1.570 -0.2439  0.0156 -0.1883
    1W        W59905   6.821   6.134   8.233 -0.0408 -0.0631  0.0347
    1W        W59906  21.810  18.964   0.310 -0.0921 -0.0287  0.0305
    1W        W59907   2.690  26.441   8.570 -0.1156 -0.0700  0.0019
    1W        W59908  25.551  12.946   2.179  0.1377 -0.1380 -0.0155
    1W        W59909   9.922  13.269   2.215  0.1331  0.1175  0.0656
    1W        W59910  23.604  17.206   9.359 -0.1994  0.2377 -0.0704
    1W        W59911  25.739  17.614   1.222  0.2817  0.4107  0.0725
    1W        W59912  13.606  12.944   9.001  0.1543 -0.2670 -0.0036
    1W        W59913  14.676  22.123   9.068 -0.2287 -0.0073  0.1189
    1W        W59914  22.215  18.860   0.041 -0.1553  0.0364 -0.1766
    1W        W59915   5.978  12.524   1.460  0.1094  0.2566 -0.2584
    1W        W59916  14.867  17.658   0.007 -0.3445 -0.2602 -0.2207
    1W        W59917   6.620  15.690   1.045  0.1323  0.0010 -0.1604
    1W        W59918  25.757   5.139   7.814 -0.2436  0.0370 -0.1958
    1W        W59919   1.110   1.249   9.322 -0.1122  0.1525 -0.2929
    1W        W59920  10.854   3.947   1.471  0.1964 -0.1142 -0.3839
    1W        W59921   1.687  21.968   1.408 -0.1731  0.0413 -0.0950
    1W        W59922   8.956   5.126   6.809  0.0811 -0.2018  0.0018
    1W        W59923  13.551  24.449   2.907  0.4717 -0.4002  0.0629
    1W        W59924   8.232  24.289   9.127 -0.1048 -0.0569 -0.0565
    1W        W59925  27.402  14.050   1.496  0.1727 -0.0877 -0.0516
    1W        W59926  24.922  22.309   0.809 -0.0662 -0.0433 -0.2733
    1W        W59927  13.582  17.189   0.676 -0.1863  0.0094  0.2649
    1W        W59928  10.118  10.642   2.354  0.4397 -0.1589 -0.1140
    1W        W59929  22.669  15.282   7.694  0.0760  0.0054  0.0074
    1W        W59930   3.505  23.933   1.065 -0.1376  0.1057  0.0050
    1W        W59931   4.296  27.770   9.255  0.1588  0.0881  0.0098
    1W        W59932  11.232  16.248   1.820  0.1460  0.1440  0.1258
    1W        W59933   8.778  13.111   1.098 -0.2534  0.1286  0.2742
    1W        W59934   0.407   3.665   7.373 -0.0804  0.0249 -0.1193
    1W        W59935  29.246   9.495   7.332 -0.0543 -0.1096  0.0772
    1W        W59936  21.160  26.782   0.567 -0.0358  0.1555 -0.1173
    1W        W59937   3.005  22.803   6.047  0.5041 -0.1141  0.1248
    1W        W59938  13.124  26.374   7.404  0.1376 -0.0212  0.2937
    1W        W59939  25.739  18.826   6.744 -0.4894 -0.0904 -0.2561
    1W        W59940  12.752   4.656   1.081  0.1241 -0.2166 -0.2517
    1W        W59941   0.959   9.700   0.544 -0.0700  0.1745 -0.0731
    1W        W59942  27.937  22.913   8.900  0.2252 -0.0676  0.1854
    1W        W59943   9.087  22.002   6.110 -0.1122 -0.3056  0.0344
    1W        W59944   3.933  14.170   1.765  0.0529 -0.0651  0.0970
    1W        W59945   1.047  27.416   2.553  0.3313  0.1333 -0.0878
    1W        W59946  27.500  13.008   6.322 -0.1247  0.1718  0.1724
    1W        W59947  18.377  27.273   1.586  0.1170 -0.0728 -0.0546
    1W        W59948  18.477  29.358   6.990 -0.0715  0.1401 -0.1432
    1W        W59949   4.260   2.656   8.513 -0.1151  0.2227  0.2567
    1W        W59950   0.417   5.773   2.211 -0.0297  0.2983  0.2561
    1W        W59951  10.325   9.364   9.244  0.0006 -0.3517 -0.0454
    1W        W59952  12.076   5.239   0.391 -0.1376  0.0819  0.2617
    1W        W59953  17.628   0.753   0.166  0.1179 -0.2869  0.2884
    1W        W59954  29.204  10.248   7.840 -0.0595 -0.1682 -0.1528
    1W        W59955   8.607   1.721   7.477  0.1572  0.1116  0.0282
    1W        W59956   3.459  20.447   1.045 -0.1717 -0.3158  0.4698
    1W        W59957  17.029  17.535   2.118 -0.1465 -0.1749  0.1918
    1W        W59958  24.648  25.111   1.542 -0.0100 -0.0191  0.2386
    1W        W59959  29.439  28.973   9.395 -0.2536 -0.3439 -0.1461
    1W        W59960  21.653  19.540   3.168 -0.2178 -0.0938 -0.0459
    1W        W59961  14.403   2.886   3.316  0.2497  0.0589 -0.1628
    1W        W59962  20.565  14.947   6.770  0.0215 -0.1689  0.1244
    1W        W59963  18.409   1.832   7.198  0.4183  0.1034 -0.1210
    1W        W59964  22.194  14.667   9.146 -0.4454 -0.0998 -0.0296
    1W        W59965   5.081  18.736   1.561 -0.1415 -0.2079 -0.0119
    1W        W59966  14.019   7.783   1.617 -0.1665 -0.2729 -0.1935
    1W        W59967   1.217   5.522   2.852 -0.1037 -0.1236 -0.0380
    1W        W59968   0.398   0.393   7.681 -0.1032 -0.0153 -0.0343
    1W        W59969   1.903   3.076   1.803 -0.0641 -0.1461 -0.0502
    1W        W59970   0.673  12.374   2.478  0.0097  0.0886  0.1623
    1W        W59971  29.650  25.804   8.554 -0.0796  0.1149  0.0242
    1W        W59972  16.229  21.113   8.911 -0.1564 -0.1652  0.1080
    1W        W59973  23.930  17.075   0.478 -0.1610  0.1247 -0.0508
    1W        W59974  28.496  10.611   2.248  0.1140  0.3022 -0.2979
    1W        W59975  14.964  21.548   0.345 -0.0539 -0.4772  0.1999
    1W        W59976  23.772  23.030   1.072  0.1661  0.1025  0.2531
    1W        W59977   5.150  20.606   9.269 -0.0929  0.2066 -0.1163
    1W        W59978  29.219  17.750   7.797 -0.0510  0.1383 -0.0010
    1W        W59979   8.463  10.653   8.381  0.2387 -0.0757 -0.1968
    1W        W59980   9.652   7.438   2.194  0.0238 -0.0234 -0.1167
    1W        W59981   8.866  28.180   2.388  0.0166  0.0614 -0.0628
    1W        W59982  11.787  23.965   1.200 -0.2647 -0.0617 -0.0834
    1W        W59983   4.690   2.926   2.485 -0.0152  0.2109  0.2616
    1W        W59984  16.469   0.585   8.074 -0.0061 -0.2327 -0.0924
    1W        W59985  26.329   4.799   6.803  0.0426  0.2311  0.3776
    1W        W59986  29.326   0.058   8.401  0.1494  0.2424  0.0451
    1W        W59987  10.631  14.438   2.094  0.1432  0.1133 -0.2082
    1W        W59988  21.080  19.913   9.405  0.0349 -0.2932 -0.0272
    1W        W59989   5.797  21.547   2.559 -0.0971 -0.3414  0.0650
    1W        W59990  22.583   8.332   8.686 -0.1596  0.3289 -0.1256
    1W        W59991   4.161  14.385   7.753  0.1884  0.1969  0.0308
    1W        W59992  16.245   7.360   8.238 -0.0626 -0.3027 -0.0398
    1W        W59993   5.940  23.607   1.956 -0.2186  0.0029  0.0055
    1W        W59994   8.817   2.698   0.411  0.0702  0.0640  0.0926
    1W        W59995  25.247  10.386   0.700  0.1566 -0.0906  0.1945
    1W        W59996   1.489  26.449   7.155 -0.1102 -0.0454  0.3647
    1W        W59997  15.838   6.740   0.469  0.1883  0.6508 -0.1501
    1W        W59998   1.492   7.432   8.724 -0.0862  0.0252  0.0276
    1W        W59999  11.879   9.082   8.816 -0.0302  0.1595  0.2621
    1W        W60000  26.754  15.352   6.326  0.1840 -0.2059  0.1760
    1W        W60001  13.048   1.794   2.846 -0.1471 -0.0818  0.0015
    1W        W60002   2.065  26.769   9.287 -0.3152  0.0465  0.1179
    1W        W60003  27.331  19.336   1.858  0.1063  0.1706  0.1139
    1W        W60004   4.390   1.551   1.246  0.1532  0.2311 -0.2321
    1W        W60005   0.624  17.719   8.009  0.2334 -0.1974 -0.1607
    1W        W60006   5.154  19.827   0.437  0.0180  0.0129  0.1517
    1W        W60007  17.660  15.054   1.854  0.1099  0.1162 -0.0854
    1W        W60008   3.297  10.350   0.496  0.3178  0.3704  0.0270
    1W        W60009  27.019   6.627   0.945 -0.1470 -0.0743 -0.1657
    1W        W60010  25.222  18.742   0.143 -0.2032 -0.1394 -0.0106
    1W        W60011  25.678  15.333   1.069 -0.1239  0.0234 -0.2836
    1W        W60012  22.848   2.668   2.666  0.1775  0.1214  0.0529
    1W        W60013  12.353   3.854   7.775  0.0619 -0.0482  0.0321
    1W        W60014   7.431  12.554   2.896  0.3484  0.0927 -0.0790
    1W        W60015  15.421  20.132   6.678  0.0387  0.2704 -0.2530
    1W        W60016  20.353   3.238   1.902 -0.0021 -0.0139  0.0483
    1W        W60017  29.286  12.582   9.227  0.4267 -0.1785 -0.0589
    1W        W60018  10.853  25.454   0.976  0.5053  0.0825 -0.2431
    1W        W60019  14.795  14.432   9.094 -0.1259 -0.0490 -0.0536
    1W        W60020   2.781  26.799   6.513 -0.0903  0.5393 -0.1143
    1W        W60021   6.600  21.066   8.506 -0.0238  0.0935  0.0786
    1W        W60022   6.333  15.898   7.804  0.1885 -0.2296 -0.0297
    1W        W60023  12.905  11.785   2.738 -0.1684 -0.1417 -0.3669
    1W        W60024  24.289  13.180   0.331  0.1289  0.0629 -0.2129
    1W        W60025  21.749  12.062   0.346 -0.0800 -0.0359  0.2784
    1W        W60026  24.835  28.375   3.787 -0.5584  0.1860 -0.2455
    1W        W60027  24.194  24.101   7.267  0.1864  0.0627  0.1957
    1W        W60028   8.681  19.571   6.940  0.1286  0.1091  0.0264
    1W        W60029  21.253   3.165   6.903 -0.1688  0.1065  0.1593
    1W        W60030  25.545   5.026   7.358  0.2319  0.3512  0.0741
    1W        W60031  16.236  18.682   0.190  0.0244 -0.1104  0.0315
    1W        W60032  18.003  28.081   7.654 -0.0120 -0.0010 -0.1896
    1W        W60033  12.205  29.619   0.862  0.0484 -0.2104 -0.5626
    1W        W60034  12.832  13.708   0.200  0.0022  0.0277 -0.0988
    1W        W60035   0.039  28.862   2.777  0.1625 -0.0321 -0.1465
    1W        W60036   9.477  27.943   0.284  0.0178  0.0972  0.0805
    1W        W60037  16.475  27.160   1.199 -0.1822 -0.2473  0.1390
    1W        W60038  26.269  19.457   7.000  0.2726 -0.0062 -0.1909
    1W        W60039  24.525  26.298   6.633 -0.2335 -0.2205  0.1051
    1W        W60040  10.975  11.626   8.576  0.0341 -0.0752  0.2234
    1W        W60041  29.671  11.061   9.074  0.3058  0.2175 -0.0946
    1W        W60042  20.776  29.575   8.672  0.0224  0.0331 -0.0060
    1W        W60043  10.159  29.029   0.938  0.0378  0.0043  0.1382
    1W        W60044  26.058  13.568   0.656  0.1975  0.1496 -0.0507
    1W        W60045   1.155  21.991   9.055  0.1346 -0.0693  0.2559
    1W        W60046  15.086   4.031   2.699 -0.0284  0.2667 -0.2464
    1W        W60047   2.004  15.477   6.994 -0.1965  0.0549  0.3257
    1W        W60048  28.476  19.729   1.974  0.0544  0.0963  0.3373
    1W        W60049  29.079  12.337   1.810  0.0311  0.0808  0.1602
    1W        W60050  14.047   6.702   7.074 -0.2122 -0.2492  0.0861
    1W        W60051  13.050  22.003   1.258 -0.0649  0.3238 -0.2839
    1W        W60052  21.572  12.434   6.551  0.3428  0.0474  0.0682
    1W        W60053  15.781  16.176   7.781  0.1295 -0.3631  0.0369
    1W        W60054   9.035  25.901   1.039 -0.0342  0.1490  0.0701
    1W        W60055  28.367   7.574   9.436 -0.5652  0.4212  0.0436
    1W        W60056  14.802  24.328   2.160 -0.0935 -0.0662 -0.2297
    1W        W60057  13.401   4.356   8.157 -0.2126  0.1580  0.2236
    1W        W60058   8.330  29.179   7.327  0.1816  0.1423  0.0019
    1W        W60059   3.002  22.140   7.282 -0.3556  0.2556  0.2891
    1W        W60060  25.234  20.802   7.928  0.2446 -0.2253  0.0617
    1W        W60061   2.026  19.367   0.920  0.3472  0.3508 -0.2136
    1W        W60062  15.584   8.089   1.262  0.2062  0.0674 -0.2043
    1W        W60063  15.933  17.588   9.336 -0.0536 -0.0154 -0.1187
    1W        W60064  21.272   4.382   7.189  0.1924  0.0175  0.2412
    1W        W60065   5.779   4.896   0.852 -0.0882  0.1141  0.0672
    1W        W60066   5.527  25.611   8.770  0.1664  0.1446  0.0853
    1W        W60067   3.037   3.855   7.908 -0.0831 -0.1645  0.0797
    1W        W60068   4.617  13.738   7.170 -0.0658  0.3525 -0.2031
    1W        W60069   1.137   9.370   2.264  0.1161  0.1593 -0.0096
    1W        W60070  23.790   8.302   0.391 -0.0838  0.0129  0.0821
    1W        W60071  27.850  15.435   1.502  0.3673 -0.2559 -0.2217
    1W        W60072  26.874  17.595   6.890 -0.1687  0.2092 -0.2514
    1W        W60073  25.167   9.322   2.286  0.2692  0.0124  0.1236
    1W        W60074  27.474  20.940   7.692  0.1357  0.2657 -0.0998
    1W        W60075  14.599   9.654   2.392  0.2197 -0.3074  0.1566
    1W        W60076  13.924  26.289   1.722 -0.3009  0.0725  0.0708
    1W        W60077   3.006   9.672   8.620  0.1850 -0.3078  0.3840
    1W        W60078  21.228  12.097   0.684  0.0357 -0.3462  0.1568
    1W        W60079  23.611   9.187   6.832 -0.0754  0.1374  0.1188
    1W        W60080  28.730  16.018   2.705 -0.0033  0.2904  0.4046
    1W        W60081  26.017  23.178   6.392  0.1368 -0.2050 -0.2619
    1W        W60082   5.210   0.861   2.063  0.4184  0.2615 -0.0371
    1W        W60083   1.397  27.925   6.774  0.2181  0.0080 -0.0348
    1W        W60084  21.216  20.839   8.060  0.2189 -0.2055 -0.0010
    1W        W60085  29.466  20.428   7.726 -0.0719  0.5174  0.0907
    1W        W60086  25.270   3.534   6.483  0.3826  0.1935  0.0954
    1W        W60087  18.507  21.750   8.372  0.3028 -0.1216 -0.2785
    1W        W60088  24.956  18.062   6.940 -0.0122  0.2397  0.0949
    1W        W60089  18.218  22.300   9.192 -0.0121 -0.0840  0.0924
    1W        W60090  19.286  15.873   2.276 -0.1329  0.1232 -0.2413
    1W        W60091   5.398   8.729   7.321 -0.1170  0.2353 -0.2740
    1W        W60092  16.193  16.994   7.409  0.0674  0.0806  0.1279
    1W        W60093  14.280  25.652   7.114 -0.0885  0.1688 -0.1458
    1W        W60094  28.958  24.986   8.509  0.1509  0.2947  0.1062
    1W        W60095   1.240  23.447   0.211  0.0954  0.0010 -0.4597
    1W        W60096  27.113  12.561   7.407 -0.0610 -0.0657  0.2281
    1W        W60097   8.090  12.232   9.004 -0.0429  0.1065  0.0302
    1W        W60098  26.134   5.161   7.542  0.2170  0.0449 -0.1961
    1W        W60099   2.783   6.342   2.654  0.2108 -0.1075 -0.2785
    1W        W60100  19.634  10.316   7.996 -0.1554  0.0287 -0.1926
    1W        W60101  23.998   9.217   0.709  0.3413  0.1495 -0.1422
    1W        W60102  23.103  16.035   0.422 -0.0936 -0.0557  0.0544
    1W        W60103  28.052   0.223   7.679 -0.0606 -0.0474  0.3825
    1W        W60104   7.767  17.230   1.203  0.0440  0.0942 -0.0697
    1W        W60105  10.928  23.529   1.379 -0.0947  0.0203 -0.1901
    1W        W60106  20.215  23.927   3.742  0.0189 -0.1563 -0.2805
    1W        W60107  11.794  10.659   2.442 -0.0138 -0.2650 -0.1538
    1W        W60108   0.961  24.862   2.083  0.2385  0.1118 -0.1057
    1W        W60109  26.459  11.655   1.874  0.1026 -0.2242  0.0459
    1W        W60110  23.143   0.793   3.779 -0.0095 -0.1684 -0.3764
    1W        W60111  24.011   8.435   2.882 -0.2281  0.0049  0.1589
    1W        W60112  17.012   0.674   0.897  0.2711  0.0860 -0.1058
    1W        W60113  27.065   0.222   8.323  0.1112  0.0130 -0.0535
    1W        W60114  10.267   6.346   1.633  0.1639 -0.0714  0.1383
    1W        W60115  28.699  21.389   0.730 -0.2312  0.1444 -0.2643
    1W        W60116  24.728   0.603   7.916  0.0960 -0.1677 -0.1385
    1W        W60117  15.152   8.246   1.013  0.1596 -0.0766  0.1781
    1W        W60118   5.617   5.210   3.864  0.1238 -0.0991  0.4812
    1W        W60119   3.516   1.877   8.457 -0.0631 -0.0613  0.3889
    1W        W60120   7.576  26.459   0.013  0.1607  0.0749 -0.0315
    1W        W60121   2.338  19.289   8.739 -0.0458 -0.1244 -0.1800
    1W        W60122   7.322  10.020   0.203  0.2247  0.0070  0.1276
    1W        W60123  13.447  12.619   8.527 -0.1167 -0.1659 -0.1272
    1W        W60124  17.452  10.373   1.378  0.1563  0.0293 -0.0643
    1W        W60125   1.338  21.037   7.870 -0.2000  0.1191 -0.0352
    1W        W60126   4.606  29.038   9.058 -0.0670  0.0177 -0.1387
    1W        W60127   3.920  13.576   9.349 -0.0371  0.2009 -0.2127
    1W        W60128   7.311   5.480   9.045 -0.1841  0.0026 -0.1031
    1W        W60129  28.236   1.277   2.389 -0.2122  0.1566 -0.1144
    1W        W60130   4.230   1.453   0.176 -0.0156 -0.2357  0.0745
    1W        W60131  26.792  27.716   0.428 -0.0299 -0.1327  0.2720
    1W        W60132  11.790   3.055   8.194 -0.3867  0.3145 -0.1590
    1W        W60133  26.303   2.268   8.408 -0.0491  0.0551 -0.4028
    1W        W60134  20.114  21.199   0.606 -0.0247 -0.0750  0.0676
    1W        W60135  20.390  25.806   0.228 -0.1517  0.0176 -0.2704
    1W        W60136  15.374  23.318   1.646  0.1471  0.2338  0.0034
    1W        W60137   5.926   1.695   9.097  0.1424 -0.2751 -0.3352
    1W        W60138   3.553  20.438   9.011  0.1963  0.0642 -0.2516
    1W        W60139  26.671  28.673   7.439  0.2363 -0.2901  0.2000
    1W        W60140  28.178  24.485   9.229  0.1365 -0.2220 -0.1510
    1W        W60141  27.771  11.336   5.881 -0.2952  0.1319 -0.2158
    1W        W60142  23.225  24.660   1.722 -0.1265 -0.1260  0.2577
    1W        W60143   6.140  12.153   7.178 -0.2708 -0.0879  0.0838
    1W        W60144  14.060   4.221   3.109  0.1647 -0.0572  0.1051
    1W        W60145  27.062   5.835   1.622  0.2025  0.1952  0.2361
    1W        W60146  25.854   1.837   0.338  0.0637 -0.0225  0.3900
    1W        W60147   7.666   5.553   8.302  0.2519  0.0888  0.2238
    1W        W60148  26.192  16.260   1.069 -0.1613  0.2747  0.1944
    1W        W60149   0.551   6.630   1.559 -0.0416 -0.1690 -0.2343
    1W        W60150  19.773  12.640   6.985  0.0321 -0.2060 -0.0521
    1W        W60151  21.054  21.564   8.284  0.0230  0.1298  0.1741
    1W        W60152  18.263  11.344   1.876 -0.2481 -0.2521  0.0489
    1W        W60153  11.638  27.040   8.413 -0.1240  0.0365  0.0210
    1W        W60154  19.403  11.212   7.794 -0.1216  0.0596 -0.4287
    1W        W60155   7.344  19.432   7.877 -0.0769 -0.1198  0.0812
    1W        W60156   8.937  13.264   8.624 -0.0243  0.0399  0.4459
    1W        W60157  29.044  24.164   1.291 -0.0965 -0.1113  0.2366
    1W        W60158  23.807  20.645   9.107  0.0057 -0.1393 -0.0966
    1W        W60159   6.603   0.058   8.824  0.0862  0.4559 -0.0943
    1W        W60160   6.868   5.329   2.049  0.3474 -0.2380 -0.0825
    1W        W60161   5.757  20.388   8.036  0.0248  0.1889  0.4193
    1W        W60162  21.923   9.788   7.593  0.0645 -0.0673  0.1439
    1W        W60163   4.284  19.174   6.290 -0.0756  0.1192  0.1330
    1W        W60164  17.110  13.636   1.823 -0.2255 -0.1137 -0.0451
    1W        W60165   4.517  22.086   2.207 -0.2652  0.2794  0.2112
    1W        W60166  29.309  29.269   7.077  0.1428  0.0895  0.1578
    1W        W60167   6.437  21.624   0.348  0.0213  0.2169  0.3175
    1W        W60168   5.828  23.908   8.572  0.3277 -0.1133 -0.2543
    1W        W60169   8.803  25.980   7.479  0.0100  0.2745 -0.0294
    1W        W60170  16.889   7.311   7.596 -0.1357 -0.2676 -0.0417
    1W        W60171   1.341  17.787   1.001 -0.2045  0.5169  0.2026
    1W        W60172  20.635   9.641   6.502  0.1445 -0.0584  0.0514
    1W        W60173  29.511  15.669   1.655 -0.1422 -0.3100 -0.0908
    1W        W60174  27.181  14.235   0.082  0.0609  0.2689 -0.0629
    1W        W60175   5.158   1.832   1.326 -0.0417  0.1043  0.0756
    1W        W60176   2.730  24.151   6.250  0.0552 -0.0468 -0.1319
    1W        W60177   0.112  15.554   6.075  0.1810  0.2795 -0.2319
    1W        W60178   6.198  27.976   3.027 -0.2560 -0.0190 -0.3249
    1W        W60179  24.084   2.247   3.608  0.0538 -0.0534  0.3038
    1W        W60180  18.527  24.930   7.696  0.1056  0.1144  0.0877
    1W        W60181  24.408  19.850   2.118  0.0091 -0.3189  0.0119
    1W        W60182   1.355  28.849   7.021 -0.2580 -0.0893  0.0815
    1W        W60183  28.208  12.929   2.453  0.0773  0.1765  0.0772
    1W        W60184   9.023   5.062   9.308  0.4343 -0.1640 -0.1330
    1W        W60185  11.201   9.836   2.252 -0.1862 -0.2481  0.0825
    1W        W60186  10.732  28.003   8.409  0.0813 -0.5311  0.0904
    1W        W60187  10.097   2.509   2.426  0.0660 -0.0464  0.3916
    1W        W60188  16.288   0.499   1.772 -0.0505  0.0045 -0.2386
    1W        W60189  24.770  19.336   8.730 -0.1338 -0.0754 -0.1115
    1W        W60190   2.249  23.053   7.232 -0.2628 -0.1756  0.0089
    1W        W60191   7.131   0.462   2.773 -0.2113  0.0573  0.1213
    1W        W60192   0.185   0.574   7.158  0.0486  0.0520  0.2980
    1W        W60193  12.153  13.345   7.374 -0.3128  0.0842  0.0329
    1W        W60194   2.449  10.620   8.995  0.2885 -0.1512  0.2653
    1W        W60195   6.912   0.667   7.573  0.2349 -0.1552 -0.4397
    1W        W60196  28.898  21.606   8.033 -0.0140  0.2654  0.0927
    1W        W60197  22.840   5.087   1.858 -0.1515 -0.0247 -0.0590
    1W        W60198  28.499  28.846   0.212 -0.2330 -0.2261 -0.2951
    1W        W60199  22.005  19.693   6.976 -0.0487 -0.0241 -0.1466
    1W        W60200   3.874  26.247   9.292 -0.3393 -0.1203 -0.0479
    1W        W60201   8.739   0.541   3.186  0.1234  0.1247  0.2353
    1W        W60202   3.749   8.571   0.911  0.1087 -0.0306 -0.0674
    1W        W60203  14.669  12.297   8.561 -0.0089  0.0126 -0.1547
    1W        W60204  19.205  14.463   7.329 -0.1020 -0.1446 -0.0239
    1W        W60205  21.349   8.040   7.108  0.2164  0.1945 -0.2086
    1W        W60206   3.034   5.489   1.417  0.0749  0.2902  0.3626
    1W        W60207   8.449  27.445   8.757  0.1273 -0.0899  0.2170
    1W        W60208   4.731   1.941   7.634 -0.3532 -0.4625 -0.0420
    1W        W60209  24.415  22.177   8.913  0.2309  0.1963 -0.0069
    1W        W60210  10.096  21.434   6.791 -0.0491 -0.0423 -0.0592
    1W        W60211  14.622  15.860   9.125 -0.2370  0.0333  0.1983
    1W        W60212   7.125   7.992   3.840 -0.0326 -0.1135  0.0219
    1W        W60213  15.140   9.571   8.534 -0.1847 -0.0868 -0.3166
    1W        W60214  12.073   4.952   2.465 -0.0221  0.0826  0.0097
    1W        W60215  13.146  14.220   6.643  0.0404 -0.1827  0.1605
    1W        W60216   1.891   2.659   7.242 -0.0659 -0.1410 -0.1865
    1W        W60217  27.589   8.650   0.657 -0.0303 -0.0711  0.2057
    1W        W60218   7.761  13.990   8.124 -0.1491 -0.0773 -0.0095
    1W        W60219  12.545  22.058   1.336 -0.0910 -0.2009  0.0956
    1W        W60220  25.791  25.958   1.090  0.1301 -0.2836 -0.1659
    1W        W60221   3.994   5.475   0.834  0.0877 -0.2341  0.0916
    1W        W60222  13.204  28.700   7.673  0.2743 -0.0491 -0.0764
    1W        W60223   1.034  13.538   9.376  0.2740 -0.0711  0.1185
    1W        W60224  13.935   5.191   2.257 -0.2652 -0.0729  0.0909
    1W        W60225  12.312  11.589   7.319  0.5878 -0.0975 -0.2561
    1W        W60226  20.255  27.870   2.947 -0.3069 -0.0972  0.0592
    1W        W60227  17.850  25.078   1.531 -0.0600 -0.2021 -0.0870
    1W        W60228  12.224   8.692   1.646 -0.1399 -0.0934 -0.1057
    1W        W60229  23.441  10.521   0.206 -0.1722  0.2471  0.1622
    1W        W60230  27.102  15.617   7.193  0.1438  0.1534 -0.1118
    1W        W60231  25.741   4.505   7.151  0.0674  0.0079  0.2991
    1W        W60232   0.552  12.451   1.614 -0.2153 -0.0746  0.2002
    1W        W60233  25.664  11.879   8.693 -0.1946  0.0666 -0.3282
    1W        W60234  11.839  13.259   2.088 -0.0399 -0.2183 -0.0489
    1W        W60235   7.515  26.157   7.300  0.3663 -0.2530 -0.1172
    1W        W60236  24.396   9.551   2.304 -0.1280 -0.3019 -0.0806
    1W        W60237  21.063   5.514   7.872 -0.0532  0.1463 -0.0115
    1W        W60238  21.301  26.968   3.016  0.1867  0.2421  0.0912
    1W        W60239  21.916   6.993   7.384 -0.1745 -0.0408  0.0155
    1W        W60240   5.832  28.370   1.940  0.0725 -0.2816 -0.1633
    1W        W60241  26.265   2.061   2.771 -0.3420  0.0025  0.0888
    1W        W60242   7.896  20.615   1.575  0.1876 -0.0487  0.1092
    1W        W60243  21.148   9.733   0.072  0.2937 -0.0566  0.1862
    1W        W60244  21.596  13.657   7.199  0.1325 -0.1381  0.2485
    1W        W60245  14.735   8.016   1.042  0.0557 -0.2537 -0.0528
    1W        W60246  20.757  14.330   1.212 -0.1993  0.1801 -0.0515
    1W        W60247  18.003   4.920   7.987  0.2393 -0.0959  0.0041
    1W        W60248  21.832  24.040   2.514 -0.2216  0.0891 -0.0531
    1W        W60249   1.300  15.699   9.396  0.3630 -0.1046  0.3350
    1W        W60250   7.734  26.013   1.348 -0.0161 -0.0455  0.0805
    1W        W60251   6.294   7.509   2.559 -0.0203 -0.1806 -0.0659
    1W        W60252  26.633  22.938   0.702 -0.0895  0.1203 -0.1011
    1W        W60253  17.907  17.605   0.463  0.1412 -0.2980 -0.1067
    1W        W60254  12.034  14.068   1.675 -0.0457 -0.0542  0.1824
    1W        W60255  14.828   9.590   7.380 -0.1160 -0.0319 -0.2461
    1W        W60256   8.310   5.755   7.779 -0.0978 -0.1049  0.1783
    1W        W60257  23.811   0.564   0.321 -0.3104 -0.2250  0.2605
    1W        W60258  22.922  23.782   1.535  0.0435 -0.1707 -0.4738
    1W        W60259  23.784  29.015   2.538 -0.2022  0.0857  0.2094
    1W        W60260   7.712  10.452   0.930 -0.0513  0.3596 -0.0720
    1W        W60261  22.635  29.032   0.555  0.2091  0.0116 -0.0641
    1W        W60262  11.875  15.047   8.757  0.0509  0.2843  0.1106
    1W        W60263  18.149   0.793   8.992  0.1734 -0.3133  0.0752
    1W        W60264   1.312  22.087   6.629 -0.3677 -0.1969  0.0015
    1W        W60265  11.213  24.704   0.499 -0.1322  0.0130  0.3546
    1W        W60266  12.503   7.601   7.639 -0.3824 -0.2540 -0.1881
    1W        W60267   7.294  17.551   6.894  0.0213 -0.1813 -0.0748
    1W        W60268  25.136   8.775   7.928 -0.0093 -0.0612 -0.1802
    1W        W60269  26.185  12.682   6.611 -0.0004  0.1110  0.5714
    1W        W60270  19.209   0.607   1.036 -0.2207  0.2444  0.1569
    1W        W60271  23.452   3.911   0.148  0.1342  0.2193 -0.0782
    1W        W60272   8.276   8.945   2.515 -0.0108 -0.0164  0.2059
    1W        W60273  26.122   4.183   1.763  0.1821 -0.0500 -0.0971
    1W        W60274  11.960   1.168   0.893 -0.0881 -0.2225 -0.1807
    1W        W60275  18.823  26.586   9.023  0.0929 -0.2755 -0.0813
    1W        W60276  11.219  26.456   0.938  0.0095  0.0114  0.1070
    1W        W60277  22.343  18.135   8.813  0.0317 -0.0437  0.2790
    1W        W60278  22.182  12.041   6.330  0.4229 -0.1491  0.0161
    1W        W60279  12.348  12.202   0.828  0.2403 -0.2084 -0.1792
    1W        W60280  10.129  24.455   2.017  0.1094  0.3220  0.1036
    1W        W60281  19.304  29.402   8.841  0.0530  0.0729 -0.2698
    1W        W60282   7.353  28.241   0.503 -0.1905 -0.4084  0.2196
    1W        W60283  16.008  29.469   7.077  0.1406 -0.0000 -0.3194
    1W        W60284   3.687  24.068   0.130 -0.2113 -0.1112  0.0133
    1W        W60285   5.938   3.520   8.795  0.1197 -0.1243  0.3815
    1W        W60286  18.527   6.989   1.949 -0.4628 -0.3540 -0.0779
    1W        W60287  14.535  19.300   1.049 -0.1756  0.1110 -0.1920
    1W        W60288  10.390   3.551   7.692 -0.1151  0.2509 -0.1064
    1W        W60289  17.347   1.921   1.447  0.0177 -0.3782 -0.3420
    1W        W60290  16.515  21.480   7.720  0.0107  0.0176 -0.0785
    1W        W60291  26.314  11.765   2.438 -0.5561 -0.1623  0.2319
    1W        W60292  21.902  14.690   0.372  0.1259  0.0414 -0.0622
    1W        W60293  26.866  17.946   8.331 -0.2385  0.0897 -0.1046
    1W        W60294   4.287   3.750   0.372  0.0136 -0.1101  0.2684
    1W        W60295  21.303  17.926   2.082  0.0616 -0.2319  0.0763
    1W        W60296  17.777   9.732   7.552 -0.0186 -0.1710 -0.1142
    1W        W60297  25.065  10.612   7.769  0.2446  0.0047 -0.1535
    1W        W60298  17.184   3.307   7.262  0.0995  0.0636  0.1249
    1W        W60299  14.611  28.672   1.750 -0.2491 -0.1088 -0.1169
    1W        W60300  14.537   0.090   7.481 -0.0592  0.0286  0.0284
    1W        W60301   8.584  18.220   9.306  0.2497 -0.2084 -0.1127
    1W        W60302   5.248  29.739   8.288 -0.0967  0.1170 -0.0691
    1W        W60303   3.144   4.934   6.424 -0.2502 -0.0226 -0.2368
    1W        W60304  18.434   6.155   1.257 -0.1694  0.0762 -0.2781
    1W        W60305   4.414  23.354   0.168  0.2031  0.2240  0.4799
    1W        W60306   7.194  20.965   1.214 -0.1980 -0.0744 -0.0014
    1W        W60307  19.247   5.987   2.796 -0.0032 -0.1790 -0.1089
    1W        W60308  20.974  24.482   7.990 -0.0086 -0.4542 -0.1038
    1W        W60309  12.766   2.476   1.844 -0.4694  0.0002  0.1809
    1W        W60310  12.924  25.456   1.137 -0.0965 -0.3261  0.0696
    1W        W60311   8.156  16.690   0.541 -0.0927  0.1809 -0.2018
    1W        W60312  19.705  15.745   7.010 -0.1108 -0.0386  0.3854
    1W        W60313  28.413  13.689   1.437 -0.3933  0.3396  0.1126
    1W        W60314  19.775   6.347   8.324 -0.1962  0.1388  0.2550
    1W        W60315   0.092  27.638   7.848  0.1791  0.1599  0.1515
    1W        W60316  11.048  25.969   8.823 -0.0651 -0.1900  0.1873
    1W        W60317  19.275  20.259   8.335 -0.1423  0.1091  0.1878
    1W        W60318  17.493   7.997   7.068  0.1634 -0.0830 -0.0478
    1W        W60319  18.228  12.477   7.562  0.0959  0.1741  0.3077
    1W        W60320  24.841   9.206   1.952 -0.0387 -0.0351 -0.2972
    1W        W60321  27.998   3.530   0.652  0.0498 -0.0257 -0.1438
    1W        W60322  20.946  17.618   1.596  0.1972 -0.1911 -0.2944
    1W        W60323  28.807  27.438   9.271  0.3262  0.0027  0.1130
    1W        W60324  11.545   9.461   8.387  0.1522  0.1158 -0.3034
    1W        W60325  16.120   7.714   9.408  0.0422  0.1912 -0.0846
    1W        W60326   6.556   7.429   8.054 -0.1184  0.1029  0.0098
    1W        W60327   9.950   3.704   9.198 -0.4111  0.1111  0.1289
    1W        W60328  19.534   6.614   6.623 -0.0427 -0.0765 -0.0556
    1W        W60329  21.495  25.089   1.250  0.0830  0.0639  0.2288
    1W        W60330   4.969   8.419   7.977  0.1356  0.1759  0.0448
    1W        W60331  22.051   8.686   8.383  0.0944 -0.0019  0.2494
    1W        W60332  20.720   0.090   1.549  0.0474  0.2552  0.2932
    1W        W60333  11.751  13.905   7.852  0.0602  0.0832  0.1182
    1W        W60334   0.260  26.625   0.522 -0.0319  0.1158 -0.1495
    1W        W60335  19.392  19.341   8.182 -0.2479 -0.1016  0.1724
    1W        W60336  17.824   0.991   1.945  0.1220  0.1088  0.0181
    1W        W60337   8.565  24.535   8.288 -0.2140 -0.1701  0.1849
    1W        W60338  23.692   3.981   9.017 -0.1781  0.3415  0.0219
    1W        W60339  16.972   5.198   0.125  0.0111  0.1293  0.0263
    1W        W60340  20.347   3.339   9.112 -0.2462 -0.2603  0.1202
    1W        W60341  18.340  26.296   8.221 -0.2066  0.2495  0.0198
    1W        W60342   2.310  18.380   1.026  0.2083  0.1501 -0.2354
    1W        W60343  17.592  29.621   8.579 -0.2590  0.0293 -0.2082
    1W        W60344   8.468   9.893   0.661 -0.1468  0.2363  0.2839
    1W        W60345  22.719   4.662   1.584  0.1508  0.4238  0.0420
    1W        W60346  10.206   5.173   7.616 -0.2001  0.0789 -0.0547
    1W        W60347   6.442  15.859   0.201  0.0911  0.2674 -0.3481
    1W        W60348  11.947   6.407   7.785  0.1532 -0.1019  0.0369
    1W        W60349   5.436  25.342   5.880 -0.1047  0.0263 -0.1644
    1W        W60350   5.252  28.765   1.410 -0.0666 -0.0586  0.2746
    1W        W60351  28.489  21.373   6.273  0.0535  0.0291  0.0179
    1W        W60352   4.443  21.319   5.944  0.0994 -0.2518 -0.2197
    1W        W60353  10.613  20.686   8.461 -0.3716  0.1089  0.1118
    1W        W60354   7.412   7.464   3.136  0.1689 -0.0799 -0.0014
    1W        W60355  15.243  25.229   0.081  0.0672  0.0448  0.1883
    1W        W60356   0.102  27.076   7.975  0.0606  0.0661 -0.2689
    1W        W60357  19.043  24.093   0.634  0.2884  0.0989  0.0645
    1W        W60358  23.115  18.248   0.923  0.0815  0.1836  0.1130
    1W        W60359  23.341  23.846   8.727  0.0594 -0.1789 -0.0491
    1W        W60360  20.090  17.668   7.435  0.0768 -0.3188 -0.1394
    1W        W60361  29.261  11.258   6.657  0.2664  0.0674 -0.2264
    1W        W60362  26.347  12.325   0.206  0.1625 -0.0353  0.0606
    1W        W60363   2.288  23.948   0.944  0.1415 -0.3270 -0.0281
    1W        W60364   5.731   3.370   1.449 -0.0885 -0.0122  0.0622
    1W        W60365   3.493  17.757   0.140 -0.3704  0.0053 -0.1872
    1W        W60366  25.840   0.349   1.412 -0.0314  0.1721  0.0754
    1W        W60367  19.519   9.385   7.242  0.4695 -0.3677 -0.1483
    1W        W60368   1.378   2.763   2.535 -0.0734 -0.1664  0.1356
    1W        W60369   9.077  17.344   6.489  0.2017 -0.1775  0.1759
    1W        W60370  23.547  12.990   8.728 -0.1769  0.3272  0.0249
    1W        W60371  14.771  29.648   0.989  0.3038  0.2012  0.2614
    1W        W60372  17.389  21.946   9.091 -0.4467 -0.0335 -0.2731
    1W        W60373  28.023  12.206   1.608 -0.0949 -0.1564 -0.0485
    1W        W60374  16.144  24.770   8.434 -0.0945  0.2334  0.1798
    1W        W60375  22.911  12.937   8.642  0.1148  0.0970  0.2737
    1W        W60376   4.627  11.294   7.582  0.2352  0.0613  0.0298
    1W        W60377  29.157  19.636   7.016  0.0129  0.5908  0.0454
    1W        W60378   1.142   4.691   2.389 -0.0970  0.0215 -0.0429
    1W        W60379  27.194  26.115   5.972  0.1174  0.1264  0.0983
    1W        W60380   9.655   8.929   8.324 -0.2923  0.2999 -0.1543
    1W        W60381  10.268  16.780   9.142 -0.3945 -0.1032  0.0795
    1W        W60382  14.806  18.665   6.937  0.1519  0.0575  0.2549
    1W        W60383   8.618  16.987   6.652  0.1992  0.0559  0.0351
    1W        W60384   9.958   6.137   0.966  0.2432 -0.0532  0.2410
    1W        W60385  28.296  13.289   8.658 -0.1236 -0.1352 -0.1414
    1W        W60386  23.935  15.252   1.196  0.1448 -0.0028  0.2031
    1W        W60387   7.742   2.907   8.951  0.2199  0.5537 -0.0908
    1W        W60388  10.382  28.303   2.971  0.1328 -0.0753  0.2402
    1W        W60389   9.767   5.147   1.286  0.0035 -0.0786  0.0490
    1W        W60390  15.885   3.875   9.448  0.0296  0.0317  0.5771
    1W        W60391  23.021  13.784   6.370 -0.0542  0.1375 -0.1478
    1W        W60392  26.819  23.853   1.798 -0.0458  0.0978  0.0891
    1W        W60393   6.768   7.272   2.607  0.1427 -0.0488  0.0632
    1W        W60394   9.271  27.860   8.587 -0.1994  0.2559 -0.1538
    1W        W60395   8.355  24.689   6.293 -0.0904  0.1694 -0.2489
    1W        W60396  14.420   4.937   8.175  0.2508  0.0050 -0.1594
    1W        W60397  27.377   2.441   1.153 -0.0861 -0.1403 -0.0356
    1W        W60398  14.693  26.425   8.824 -0.1484  0.1262 -0.3516
    1W        W60399  11.274  19.664   1.873  0.2757 -0.2261  0.0231
    1W        W60400  27.688   3.952   7.658  0.0553 -0.3223 -0.2370
    1W        W60401   4.777   2.234   1.590  0.1234  0.2481  0.1334
    1W        W60402  23.245   6.429   0.472  0.1375  0.2768  0.1288
    1W        W60403  10.336  28.118   7.357  0.0320  0.0700 -0.2256
    1W        W60404   2.627   1.825   7.580  0.1650  0.0894 -0.0315
    1W        W60405  27.425   0.140   1.223  0.0088  0.0856 -0.1128
    1W        W60406  11.209  17.587   6.646  0.1414  0.2097  0.0651
    1W        W60407  24.828  16.355   1.109  0.1234 -0.0692 -0.3550
    1W        W60408   7.689   7.005   6.867  0.1070 -0.0892  0.3984
    1W        W60409  15.138   8.602   1.378 -0.0714 -0.3241  0.0606
    1W        W60410  28.207   4.426   7.032  0.1125  0.2957  0.0845
    1W        W60411   5.087  12.196   6.000 -0.1960 -0.1275 -0.1248
    1W        W60412   9.604   5.464   3.491 -0.1427  0.3533 -0.2962
    1W        W60413   8.206   7.307   3.424 -0.1576 -0.0867 -0.0705
    1W        W60414   5.631  19.456   8.163 -0.0701 -0.1336  0.0610
    1W        W60415  18.569   8.226   0.663  0.0689 -0.0308  0.0031
    1W        W60416  19.387  18.270   7.085 -0.0022  0.1048  0.1160
    1W        W60417  12.520   9.655   1.487 -0.0752 -0.3626 -0.2572
    1W        W60418   9.217   0.250   0.608 -0.0193  0.1830  0.2364
    1W        W60419  17.079  21.349   9.453  0.0136 -0.0297  0.1729
    1W        W60420   3.839  20.041   7.502  0.2953 -0.0900  0.1355
    1W        W60421  26.532   0.368   2.697  0.2217  0.0234 -0.0514
    1W        W60422  28.343  15.318   8.481  0.3842  0.3472  0.0638
    1W        W60423  14.232  14.306   1.930 -0.0578  0.0149  0.0419
    1W        W60424   6.203   7.797   3.082  0.0165 -0.1872 -0.0932
    1W        W60425  20.514  16.625   9.459  0.0412 -0.0136  0.1713
    1W        W60426   3.667   0.972   9.033 -0.0529 -0.2069 -0.2033
    1W        W60427  16.855  11.539   9.022 -0.1238  0.0335 -0.0538
    1W        W60428  22.462   1.329   2.008  0.0367 -0.0914  0.3945
    1W        W60429  14.142   6.235   7.640  0.1682  0.2174 -0.0272
    1W        W60430  29.149  25.294   0.074  0.0219 -0.1338  0.1505
    1W        W60431   5.820  19.831   1.128 -0.1403  0.1204  0.0216
    1W        W60432   6.628  27.412   1.954  0.1225 -0.0714 -0.0850
    1W        W60433   0.814   6.277   3.299 -0.0908  0.1150 -0.0470
    1W        W60434  28.462  25.719   1.879  0.2274  0.3406 -0.4014
    1W        W60435  27.522  10.449   1.408  0.0565  0.1794  0.5034
    1W        W60436  17.209   4.558   7.912  0.0899 -0.3025 -0.1246
    1W        W60437  18.614  16.854   8.196 -0.0761 -0.2163 -0.2813
    1W        W60438   1.203   1.409   2.230  0.1938  0.3232 -0.0775
    1W        W60439  13.674  23.527   6.863  0.0512  0.0761 -0.4551
    1W        W60440  14.479   7.459   1.737  0.0766  0.2704 -0.3766
    1W        W60441  15.752  26.582   1.978 -0.1306 -0.0777 -0.0852
    1W        W60442  29.019  10.603   8.752 -0.1070 -0.0378 -0.1557
    1W        W60443   9.387   4.523   2.190 -0.0223 -0.0197  0.1251
    1W        W60444  21.594   1.962   2.056  0.0366 -0.1661 -0.1614
    1W        W60445   9.582  13.901   9.186 -0.0377  0.4819  0.0572
    1W        W60446  25.013  25.133   0.776  0.0153  0.0812  0.0509
    1W        W60447  28.190  15.760   7.311  0.1041  0.2360 -0.1948
    1W        W60448  19.875  26.247   1.317  0.0641 -0.2191  0.1010
    1W        W60449  22.489  11.222   0.811  0.0083 -0.0528 -0.0665
    1W        W60450  27.541   3.063   1.399  0.2795 -0.2110 -0.0471
    1W        W60451  28.922  10.151   6.869 -0.1749  0.2694 -0.2987
    1W        W60452  27.841   6.471   9.413  0.1814  0.3647  0.2786
    1W        W60453  16.483   4.830   7.035 -0.3576 -0.1468 -0.0151
    1W        W60454   9.591   4.492   1.338  0.1424  0.2249 -0.2213
    1W        W60455   4.975  22.582   7.465 -0.0967 -0.0573 -0.0522
    1W        W60456  19.949  14.978   9.081  0.2060 -0.1283 -0.1784
    1W        W60457  12.553  25.512   6.329 -0.1530 -0.0526 -0.2239
    1W        W60458   9.838  10.915   9.286  0.1521 -0.0923 -0.2508
    1W        W60459   8.053   0.972   2.676 -0.1434  0.2114 -0.1099
    1W        W60460   2.492  25.853   1.188  0.0622  0.1627  0.2019
    1W        W60461  22.626  24.595   1.027 -0.1019  0.2340 -0.0354
    1W        W60462   8.231  10.209   8.493 -0.1475 -0.1128  0.1022
    1W        W60463   1.031   8.289   8.992  0.0547  0.0330  0.0898
    1W        W60464  25.656   2.642   0.733 -0.0575 -0.3093  0.2849
    1W        W60465  14.760   0.861   0.111 -0.2242 -0.0373  0.0101
    1W        W60466   5.439   2.141   8.051 -0.0176  0.1481  0.3202
    1W        W60467   8.500   8.134   1.165 -0.1265 -0.0451  0.3262
    1W        W60468  11.054  14.426   0.139  0.2318  0.0212  0.1096
    1W        W60469  18.251  22.417   0.606  0.2147  0.1209  0.1930
    1W        W60470  15.778   5.392   8.065 -0.0081  0.1477 -0.3311
    1W        W60471   6.370   1.797   2.760  0.1333 -0.0371  0.3286
    1W        W60472   3.855  14.450   6.661 -0.3628 -0.0689 -0.4991
    1W        W60473  10.359  13.609   8.109  0.1334 -0.0619 -0.2952
    1W        W60474   5.163  18.911   6.507 -0.3601  0.2538  0.0638
    1W        W60475  25.580   8.516   7.946 -0.0299  0.0925  0.0816
    1W        W60476  17.244  24.624   9.203 -0.0288  0.0622  0.1702
    1W        W60477  24.236  21.029   9.103  0.2074  0.2932 -0.1444
    1W        W60478   4.532  28.930   0.502 -0.0265  0.1231  0.0159
    1W        W60479   4.198  23.641   9.270 -0.1206  0.1088  0.0098
    1W        W60480  28.026   7.949   1.123  0.1545  0.0683  0.0948
    1W        W60481  15.688   7.357   1.805 -0.0473  0.0878  0.1975
    1W        W60482   1.679  11.083   1.095  0.0701  0.0920 -0.0509
    1W        W60483   6.385  12.623   9.027 -0.0788 -0.0255  0.0835
    1W        W60484   5.777  21.584   5.832 -0.0307 -0.1045 -0.2778
    1W        W60485   5.790  24.304   7.233 -0.0526 -0.2045  0.2774
    1W        W60486  25.298  26.456   9.034  0.2051  0.1944  0.0042
    1W        W60487  29.499   0.612   8.974  0.2521  0.1907  0.4630
    1W        W60488  27.046  21.062   7.314 -0.3761  0.0379  0.0921
    1W        W60489  10.823  23.204   8.279  0.3476  0.0291 -0.1187
    1W        W60490  29.732   6.331   0.705  0.1197 -0.0038 -0.0095
    1W        W60491   0.989  25.996   7.768  0.3067  0.2983 -0.0550
    1W        W60492  27.871  15.955   1.601  0.0407  0.0836  0.0635
    1W        W60493   1.869   3.566   2.108  0.0903  0.1770 -0.2585
    1W        W60494   3.784  17.414   7.978  0.0847 -0.1059 -0.2523
    1W        W60495  11.244   1.609   0.859  0.1800 -0.1032  0.2743
    1W        W60496  22.317  14.008   7.606 -0.0660  0.0441 -0.3128
    1W        W60497  18.620   6.016   7.646  0.0794 -0.2370  0.0353
    1W        W60498   0.961  23.929   7.269  0.1832  0.1774 -0.2452
    1W        W60499  24.998  11.167   9.430 -0.1244 -0.0815  0.0977
    1W        W60500  16.774  12.614   7.305 -0.2437  0.0775  0.2975
    1W        W60501   3.539   0.378   7.293 -0.0488  0.3800  0.2579
    1W        W60502  26.991  29.544   8.368 -0.1051 -0.1147 -0.2251
    1W        W60503  21.794   5.246   8.872 -0.0539  0.1519  0.0963
    1W        W60504  15.130  24.727   1.943 -0.2507 -0.0185 -0.2358
    1W        W60505  29.612   3.133   1.671 -0.0125  0.3055 -0.1060
    1W        W60506  28.176  28.813   3.295  0.0041 -0.1151  0.0470
    1W        W60507  23.339   3.331   7.927 -0.1292 -0.0256  0.4536
    1W        W60508  29.159  17.359   0.810 -0.1185  0.1756 -0.0221
    1W        W60509  23.912  20.306   0.069  0.0386 -0.0379 -0.0080
    1W        W60510   3.697   2.635   8.521  0.2119  0.0591 -0.3173
    1W        W60511  12.600   4.218   0.943  0.1061  0.2834 -0.0253
    1W        W60512  29.396   7.088   6.604  0.3498 -0.0414  0.5307
    1W        W60513   5.370  11.257   9.457  0.0536 -0.1074  0.3143
    1W        W60514  11.240  22.257   0.976  0.2314 -0.2254 -0.1313
    1W        W60515   0.877  10.158   6.051  0.1266 -0.2141 -0.1887
    1W        W60516  24.817  21.325   2.384  0.1490 -0.0323  0.1705
    1W        W60517   3.050  26.193   7.314 -0.1797 -0.0218 -0.0019
    1W        W60518  25.680  22.071   8.898  0.0354  0.2345  0.2351
    1W        W60519  29.526  16.758   2.532  0.1235 -0.1328 -0.2986
    1W        W60520  27.322   2.121   1.627 -0.0547  0.3631 -0.2498
    1W        W60521  17.836   2.983   2.262  0.1842 -0.1536 -0.1385
    1W        W60522   4.691  27.207   1.815 -0.2857  0.0062 -0.1953
    1W        W60523  14.232  11.947   0.487  0.0924  0.1032 -0.1293
    1W        W60524  15.386  24.343   9.370  0.1859  0.0955 -0.1123
    1W        W60525   2.777  19.153   0.239  0.3371  0.0663 -0.0733
    1W        W60526   4.093  28.780   9.179 -0.1736  0.2944  0.0657
    1W        W60527  27.394  26.188   6.687  0.1071  0.0365  0.1674
    1W        W60528  10.439  13.825   1.334 -0.1897 -0.1746 -0.0234
    1W        W60529  13.610  26.382   0.366 -0.0006  0.2374  0.1256
    1W        W60530  20.327  23.878   2.065 -0.2119  0.0880 -0.1226
    1W        W60531  15.393  21.193   9.106  0.1328 -0.3072  0.0884
    1W        W60532   7.904  18.758   9.404  0.1356 -0.0299  0.1196
    1W        W60533  14.297  23.589   2.029 -0.0010 -0.2476  0.0223
    1W        W60534   7.299  19.238   7.175  0.2079  0.1208  0.1454
    1W        W60535  22.016  22.194   2.486 -0.1084 -0.0158  0.3922
    1W        W60536  19.695  13.485   1.328 -0.1677  0.4481  0.0281
    1W        W60537  21.127  15.973   8.186 -0.1965  0.0159 -0.0352
    1W        W60538   6.805  19.494   2.246 -0.0718  0.0369 -0.1905
    1W        W60539  16.637   8.077   1.627 -0.0778  0.4083  0.0516
    1W        W60540   7.373   1.821   0.889 -0.4442  0.0233  0.0682
    1W        W60541  26.229  12.385   5.615  0.1419 -0.1226 -0.1591
    1W        W60542  26.119   9.074   7.669  0.0210 -0.0799  0.3463
    1W        W60543   0.661  13.870   8.529  0.1329  0.0815  0.1985
    1W        W60544  25.527   6.351   7.613 -0.1835 -0.0028  0.1608
    1W        W60545  12.560  12.207   2.841 -0.0129  0.0332 -0.2495
    1W        W60546  21.933   3.462   9.255 -0.0756 -0.1960 -0.0748
    1W        W60547  20.960  27.825   7.287 -0.1881 -0.0307 -0.0566
    1W        W60548   1.256  29.531   7.833 -0.0922 -0.0610  0.1172
    1W        W60549  10.916  18.645   5.951 -0.0872  0.1172  0.1961
    1W        W60550   1.806   7.891   9.403 -0.0057 -0.0794 -0.1273
    1W        W60551  15.915  12.439   1.376 -0.0317  0.0991  0.2053
    1W        W60552   5.243   5.378   2.592 -0.0105 -0.1207  0.3384
    1W        W60553   1.913  12.641   6.109  0.1598  0.1719 -0.3096
    1W        W60554  10.105   7.166   1.463 -0.0172  0.1538  0.1928
    1W        W60555  24.313  14.360   8.174  0.1203 -0.1555  0.0648
    1W        W60556  22.741  21.658   0.719  0.2504 -0.1287 -0.0544
    1W        W60557  21.501  18.174   0.635 -0.1801 -0.1672  0.2324
    1W        W60558  15.847  10.356   0.213 -0.0490 -0.0634 -0.1631
    1W        W60559   0.556  21.291   0.493 -0.3440  0.6200 -0.0476
    1W        W60560  23.781  29.397   3.899 -0.0432 -0.2333  0.0543
    1W        W60561   6.990  14.391   3.002 -0.0544 -0.0857 -0.3216
    1W        W60562  14.782  23.806   1.901  0.0797  0.0547  0.1713
    1W        W60563   9.195  24.853   8.842  0.0553 -0.0453  0.0264
    1W        W60564  27.069   5.143   8.806 -0.0383  0.1661  0.2579
    1W        W60565  22.635   3.839   9.095 -0.1335  0.0371  0.4978
    1W        W60566  21.276  10.436   7.459 -0.0092 -0.1384 -0.4138
    1W        W60567  12.383  25.798   8.683 -0.2796  0.4351  0.3825
    1W        W60568  20.968   8.214   2.335  0.3483  0.3381  0.1192
    1W        W60569   5.228  16.701   6.094 -0.1783 -0.0502  0.0981
    1W        W60570  22.135  17.515   0.956 -0.1736  0.2302  0.0970
    1W        W60571   3.570  26.456   0.533  0.2220  0.1226 -0.0929
    1W        W60572  28.020   0.562   8.948 -0.2529  0.0293  0.0074
    1W        W60573  16.123   9.980   7.094  0.0849 -0.1298 -0.0026
    1W        W60574  14.657  26.920   0.921  0.1887  0.3473  0.0311
    1W        W60575  18.341  16.468   7.478 -0.0949  0.0574 -0.4976
    1W        W60576   8.075  16.455   0.104 -0.1009  0.1127  0.2717
    1W        W60577  29.538  11.502   2.041  0.0241  0.2247 -0.0089
    1W        W60578  26.061   7.686   2.109  0.0718 -0.5187  0.0555
    1W        W60579  15.526   1.945   8.425  0.0522  0.0740  0.0293
    1W        W60580   8.291   1.998   7.084 -0.1155 -0.2463  0.0820
    1W        W60581   6.274  12.015   9.260 -0.1561 -0.0634 -0.0864
    1W        W60582   3.024  24.569   2.241 -0.0497  0.3324 -0.3027
    1W        W60583  17.960  19.090   8.481  0.1641 -0.3432  0.2522
    1W        W60584   5.256   9.722   9.457  0.1872 -0.0829  0.0286
    1W        W60585  16.586  17.810   6.954 -0.2031 -0.1527  0.0163
    1W        W60586  21.126  21.760   8.785 -0.2371 -0.1354  0.0682
    1W        W60587   2.028   3.730   7.964  0.1302  0.0141 -0.1346
    1W        W60588  15.180  18.102   9.414 -0.1227 -0.2926  0.1651
    1W        W60589   4.352   1.635   0.749 -0.0127 -0.0500  0.1622
    1W        W60590   3.607  10.739   8.984  0.0411 -0.1070 -0.1341
    1W        W60591  23.601  24.306   6.627  0.2180 -0.2097  0.1781
    1W        W60592  22.639   5.520   8.034  0.0293  0.0434 -0.2528
    1W        W60593  22.914   6.790   0.267  0.1775 -0.2600 -0.1937
    1W        W60594  17.109  26.017   8.781 -0.0229 -0.1514  0.1315
    1W        W60595  28.676  11.342   5.898  0.2564  0.2081  0.2599
    1W        W60596  12.788  12.285   7.797 -0.2098  0.0834 -0.2413
    1W        W60597  26.552  12.990   6.351  0.1452 -0.3717 -0.0052
    1W        W60598  15.604   1.111   8.049  0.3081  0.1851 -0.2173
    1W        W60599  18.000  26.083   7.296  0.1417 -0.2700 -0.4080
    1W        W60600  15.845   5.994   0.325 -0.0808  0.1454  0.0312
    1W        W60601   0.822  22.443   5.458 -0.1937  0.1546  0.1329
    1W        W60602  19.967  24.138   0.123 -0.0416 -0.1189  0.0357
    1W        W60603  11.648   8.102   9.264  0.0477  0.1935  0.0336
    1W        W60604  21.253  17.858   7.928  0.2054  0.1444  0.3563
    1W        W60605  12.802  13.762   1.882 -0.1197  0.3125  0.0096
    1W        W60606  25.804  17.074   8.428 -0.0626  0.1165 -0.1102
    1W        W60607  16.130  19.208   0.218 -0.0137 -0.2098 -0.0377
    1W        W60608  28.787  12.736   1.589  0.0579 -0.2397  0.1339
    1W        W60609   1.987   0.434   1.307 -0.2540 -0.2015 -0.2887
    1W        W60610   8.310  11.341   0.654 -0.2536 -0.0059  0.0218
    1W        W60611  29.391  28.327   6.855 -0.1434 -0.3158  0.0786
    1W        W60612   0.176  14.943   8.790 -0.2509  0.1276 -0.0455
    1W        W60613  23.836   7.655   8.865 -0.0382  0.3734 -0.1181
    1W        W60614  20.431  16.897   7.229  0.0477 -0.0999  0.2927
    1W        W60615   0.600  23.405   0.989  0.1648 -0.1010  0.0149
    1W        W60616  21.843  22.848   1.906 -0.1163  0.3574 -0.1167
    1W        W60617   2.845  19.321   1.489 -0.0049 -0.0283 -0.1031
    1W        W60618  16.274  22.688   0.076 -0.0115  0.0147 -0.1205
    1W        W60619  23.798   4.980   1.156  0.3105  0.0642 -0.1804
    1W        W60620  29.200  19.169   9.370 -0.1250  0.0526 -0.0055
    1W        W60621  13.556   8.028   8.930  0.0719 -0.1587  0.1841
    1W        W60622   5.859   0.629   7.775 -0.0710 -0.1435  0.3129
    1W        W60623  29.493  16.340   7.190  0.1734 -0.1249 -0.2121
    1W        W60624   5.054   0.444   1.094 -0.1339  0.1304 -0.0082
    1W        W60625   5.331   0.731   7.890 -0.1679  0.1193 -0.1788
    1W        W60626  12.447  29.302   8.820 -0.0050 -0.1017 -0.0506
    1W        W60627  14.647   5.430   1.853  0.0532 -0.2404  0.2022
    1W        W60628  26.204  16.963   0.036  0.0319 -0.0583  0.0727
    1W        W60629  27.436  13.157   7.527  0.4061 -0.1526  0.0164
    1W        W60630  14.566   0.245   8.851  0.2643 -0.2555 -0.3545
    1W        W60631  20.272  24.636   7.441  0.2529 -0.3002  0.2829
    1W        W60632  21.529   1.245   1.480  0.2611  0.0406 -0.2438
    1W        W60633   9.756  20.076   6.821  0.1498  0.0800 -0.0712
    1W        W60634  10.778   8.691   2.731  0.4240 -0.3831  0.1966
    1W        W60635   7.160  26.874   6.932 -0.0100  0.1512  0.2356
    1W        W60636   7.877   1.023   7.749 -0.1345 -0.0069 -0.2028
    1W        W60637  21.364   4.809   0.744 -0.2224  0.1516  0.0349
    1W        W60638   5.995  18.334   5.869 -0.2793  0.1570  0.2505
    1W        W60639  21.090  19.901   7.826 -0.1740 -0.0610  0.2494
    1W        W60640  17.061  29.170   7.567  0.3720  0.1597  0.1247
    1W        W60641  29.649  28.331   0.186 -0.2049 -0.1697 -0.1369
    1W        W60642   0.317  12.140   9.101  0.1284 -0.0161 -0.0932
    1W        W60643  17.976  11.506   2.264  0.2782  0.0501  0.2597
    1W        W60644  20.078   5.089   8.604  0.0494  0.0221  0.2348
    1W        W60645  15.183   7.298   2.287  0.1308 -0.1692 -0.0047
    1W        W60646   6.958   9.291   0.844 -0.4582 -0.2244 -0.1472
    1W        W60647  28.379  26.236   1.798 -0.0373  0.2573  0.1468
    1W        W60648  13.881  23.062   6.739  0.2053  0.0337 -0.2503
    1W        W60649  25.815  27.665   2.011 -0.1264 -0.0273 -0.0956
    1W        W60650   9.913  26.733   7.455 -0.0412 -0.1619  0.4564
    1W        W60651  20.660  16.514   7.549  0.1773 -0.2246  0.2337
    1W        W60652   9.792   8.398   7.746  0.0850 -0.2707  0.0535
    1W        W60653  22.442  24.404   2.949  0.1925  0.0094 -0.0969
    1W        W60654  25.204   5.919   6.950  0.1136 -0.2486 -0.1135
    1W        W60655  28.272  12.691   0.066 -0.0079 -0.1140  0.0168
    1W        W60656   4.369   4.870   1.692  0.2605  0.0621 -0.2353
    1W        W60657  29.587   7.549   7.113 -0.0093  0.0720  0.3275
    1W        W60658  23.585  26.021   2.228  0.0054 -0.1122  0.1596
    1W        W60659  27.284  18.723   2.382  0.0441 -0.1634  0.1440
    1W        W60660  24.913  17.465   8.894  0.2270  0.1878  0.2712
    1W        W60661  14.376   6.954   2.056 -0.0686 -0.2050 -0.0877
    1W        W60662  23.567   6.827   8.899 -0.2547  0.3629 -0.2409
    1W        W60663   9.393   0.480   1.304 -0.0534 -0.1632  0.1607
    1W        W60664  10.314   3.851   1.828  0.0981 -0.3351  0.0005
    1W        W60665  28.435  13.354   7.480 -0.1657  0.3689 -0.2731
    1W        W60666  29.618  27.482   8.318 -0.1768  0.1013 -0.1825
    1W        W60667   9.143  22.809   6.415 -0.0182  0.1420  0.0583
    1W        W60668  19.029  27.244   6.997  0.0655 -0.0513 -0.0196
    1W        W60669   2.301   7.898   2.430 -0.0285 -0.0171  0.2034
    1W        W60670  16.930  22.864   8.167  0.1455  0.2951  0.0215
    1W        W60671  18.828  20.694   0.762 -0.0933 -0.0740  0.0932
    1W        W60672  28.012  26.524   1.941 -0.5356 -0.3215  0.2219
    1W        W60673  10.691  15.122   1.009  0.1255  0.2541  0.1077
    1W        W60674  10.651  23.510   8.887 -0.2587 -0.0301 -0.3469
    1W        W60675  23.347  17.279   1.899  0.0177 -0.0987 -0.0954
    1W        W60676  19.905  15.361   1.493 -0.3466 -0.1181 -0.1476
    1W        W60677   7.467  11.079   0.163  0.0392 -0.1285  0.3341
    1W        W60678  23.335   4.375   0.006  0.0632 -0.0165  0.0159
    1W        W60679  14.506   7.987   1.516 -0.2689 -0.1715 -0.1236
    1W        W60680  26.008  24.779   7.653 -0.1636 -0.3678  0.0467
    1W        W60681   1.542  17.946   8.396  0.0785  0.0755 -0.0082
    1W        W60682   2.563   1.364   8.850 -0.1095 -0.0710  0.0352
    1W        W60683   6.892  19.599   6.273 -0.0019 -0.0978 -0.2331
    1W        W60684  28.941  20.733   0.172  0.0374 -0.0334 -0.3829
    1W        W60685   9.545   9.433   1.003 -0.3257  0.0302 -0.2002
    1W        W60686  29.374  28.545   1.302 -0.1550 -0.2023 -0.0306
    1W        W60687   6.825   2.241   7.307 -0.0522 -0.0529  0.0741
    1W        W60688  19.414  16.332   0.533 -0.0383 -0.0376  0.2700
    1W        W60689  15.093  20.656   1.848 -0.2369 -0.1905 -0.1399
    1W        W60690  25.751   2.985   9.014 -0.1984  0.0708 -0.1591
    1W        W60691  15.657  27.011   7.692  0.0021  0.1676 -0.1337
    1W        W60692  22.499  19.305   8.426 -0.2401  0.0501 -0.0036
    1W        W60693  16.663  17.637   1.751  0.0213 -0.2128 -0.0829
    1W        W60694   0.589  17.952   8.547  0.1092 -0.1168 -0.2782
    1W        W60695  25.906  25.961   1.599 -0.0395  0.1159 -0.0182
    1W        W60696   5.683  11.122   2.935  0.3625 -0.1981 -0.0524
    1W        W60697  13.104  19.203   0.350 -0.2702  0.2182  0.1464
    1W        W60698   4.778  14.819   0.396  0.2321  0.0061  0.0244
    1W        W60699  26.408  12.141   6.077 -0.2186 -0.1212 -0.0327
    1W        W60700  16.255  28.098   2.837  0.0998 -0.0171 -0.3086
    1W        W60701  27.741   6.545   2.259 -0.0052  0.0671 -0.3419
    1W        W60702   6.500   2.345   9.165 -0.0984 -0.1419  0.2434
    1W        W60703   6.943  28.498   2.006 -0.1246  0.2533 -0.0414
    1W        W60704  19.698  28.157   3.223  0.1048  0.0143  0.2350
    1W        W60705  14.636   2.757   8.848 -0.0189 -0.1281 -0.1074
    1W        W60706  11.965  19.596   7.921  0.1385 -0.0494  0.3535
    1W        W60707  16.522  23.818   1.201  0.2932 -0.1350  0.1056
    1W        W60708  24.679  23.770   2.574  0.1405 -0.3254  0.0231
    1W        W60709   2.831  15.282   1.967 -0.0809 -0.0342  0.1285
    1W        W60710  11.864   3.649   2.628 -0.1667 -0.0360 -0.1337
    1W        W60711  19.447   1.217   1.038 -0.0319 -0.0226  0.5974
    1W        W60712   9.646  26.394   0.060  0.3430  0.1268  0.0425
    1W        W60713   4.305  17.338   6.519  0.2934 -0.0790 -0.3890
    1W        W60714  21.727   2.455   7.610  0.0203  0.0562 -0.0467
    1W        W60715  22.419  24.647   7.619  0.2558  0.0132  0.0656
    1W        W60716   4.565  11.786   9.139  0.2816 -0.0353 -0.3412
    1W        W60717  24.607  13.676   6.944 -0.2894 -0.0777 -0.0822
    1W        W60718  14.127  15.558   1.808 -0.1128 -0.0233 -0.1663
    1W        W60719  19.387  18.346   2.333  0.0407  0.1599  0.1611
    1W        W60720  22.745  23.800   1.039  0.2109 -0.0752  0.2335
    1W        W60721   3.875  13.086   0.543  0.0802 -0.0615  0.0794
    1W        W60722   2.218  15.495   6.241 -0.1066 -0.0523 -0.1986
    1W        W60723  16.719  16.659   9.162 -0.0668 -0.1517 -0.1531
    1W        W60724   7.080   3.800   3.377 -0.2124  0.0040  0.1829
    1W        W60725  21.468  26.165   8.349  0.3252 -0.0150 -0.0573
    1W        W60726   1.112   7.658   1.811  0.1489  0.1881  0.0455
    1W        W60727  16.270   5.385   1.697 -0.1027  0.1468  0.1388
    1W        W60728  22.612   3.236   2.631  0.0245 -0.1084  0.3705
    1W        W60729  25.262   1.741   7.884  0.2840  0.1870 -0.0709
    1W        W60730  21.458  22.108   9.114 -0.0585  0.1364 -0.0760
    1W        W60731   1.257   3.634   2.010  0.1504 -0.0882 -0.1155
    1W        W60732  10.939  22.077   8.891  0.3298  0.0659  0.2886
    1W        W60733  17.446  24.159   6.439 -0.0067 -0.1392 -0.0702
    1W        W60734  19.507  15.818   0.417 -0.0380  0.4139  0.1909
    1W        W60735  15.456  10.046   2.440  0.1304 -0.0605  0.0651
    1W        W60736  29.730  27.234   7.461  0.3612  0.3143 -0.3331
    1W        W60737  17.319  12.793   8.607 -0.0684 -0.0334 -0.1408
    1W        W60738  21.865   7.982   1.821 -0.0250 -0.1091  0.1169
    1W        W60739  14.708  21.983   0.524 -0.2494 -0.1617 -0.0165
    1W        W60740   5.654  20.905   8.281  0.4700 -0.0569  0.0945
    1W        W60741  11.363  19.102   8.969  0.3385 -0.1136 -0.0518
    1W        W60742   1.505   9.772   0.499 -0.1472  0.0949  0.0096
    1W        W60743   5.883  25.147   8.915  0.0805 -0.1538 -0.1586
    1W        W60744  21.643  20.816   0.248  0.0561  0.1069  0.2234
    1W        W60745  24.101  13.489   1.232 -0.1115 -0.1007 -0.0662
    1W        W60746  11.053  24.241   1.115  0.0240 -0.3406  0.1901
    1W        W60747  12.555  13.334   9.454 -0.1137  0.0085 -0.3200
    1W        W60748  15.272   2.527   9.319 -0.1924 -0.0311 -0.1027
    1W        W60749  27.644   2.605   1.693 -0.1559 -0.0018 -0.1380
    1W        W60750  13.611  21.666   7.860 -0.2379 -0.1415  0.0582
    1W        W60751  14.690   2.781   2.819  0.1594  0.4729  0.0767
    1W        W60752  24.785   1.594   7.763  0.0462 -0.3168  0.2536
    1W        W60753  10.921   0.674   1.832  0.0937 -0.3428  0.1248
    1W        W60754  21.725  23.072   3.410 -0.4238 -0.0889 -0.0320
    1W        W60755   4.873  14.005   8.812 -0.1219 -0.1521 -0.2789
    1W        W60756  20.753   0.844   7.309  0.0366  0.2916  0.3505
    1W        W60757   4.420  14.505   0.083 -0.0857 -0.1319  0.2161
    1W        W60758   1.920  28.037   6.773 -0.1547  0.0395 -0.0612
    1W        W60759  29.256  14.275   8.823 -0.1930  0.1820 -0.6013
    1W        W60760  22.119  16.544   8.328 -0.0843  0.3031 -0.3871
    1W        W60761  22.267  24.823   1.635 -0.4478  0.1617  0.1474
    1W        W60762   1.782   5.281   8.625  0.0399 -0.0970 -0.0295
    1W        W60763   7.661  23.076   0.654  0.0545  0.0335  0.2343
    1W        W60764   7.703  27.231   9.290 -0.2704  0.0395 -0.0379
    1W        W60765   1.957   6.213   6.607  0.0447  0.1730 -0.3289
    1W        W60766   7.739   1.794   8.238 -0.3876 -0.0160  0.1996
    1W        W60767  14.885  19.068   1.547  0.0121 -0.0817 -0.1666
    1W        W60768  27.828  11.825   8.891 -0.4382  0.0479  0.2450
    1W        W60769  20.419  26.379   2.852 -0.2492 -0.1863  0.1287
    1W        W60770   2.202  25.078   7.384  0.1779  0.1126  0.0140
    1W        W60771  18.310   6.053   8.966 -0.0264 -0.1310 -0.0971
    1W        W60772   7.085  20.192   0.239 -0.1262  0.1150  0.1949
    1W        W60773   3.534  20.962   6.654  0.0708  0.1158  0.1078
    1W        W60774   7.590   1.362   0.964  0.1056  0.2118  0.1536
    1W        W60775  12.058   8.156   2.409  0.0922  0.0006  0.1198
    1W        W60776  14.364  16.095   6.913 -0.2209 -0.0083  0.0241
    1W        W60777   6.047  12.193   1.064  0.0409 -0.0641  0.1385
    1W        W60778   5.323   3.813   1.310 -0.0500 -0.0142 -0.3163
    1W        W60779   4.871  15.621   0.291 -0.0490  0.0952 -0.0394
    1W        W60780  19.839  26.584   2.017  0.0217 -0.2146 -0.3218
    1W        W60781  17.525  29.114   8.435  0.1504  0.4549 -0.2675
    1W        W60782   5.056  12.485   9.058  0.1715  0.1394  0.1045
    1W        W60783  28.586  11.461   0.696 -0.1866  0.1704  0.1196
    1W        W60784   4.144  25.563   2.429  0.1486  0.0807 -0.1034
    1W        W60785   3.030  26.722   1.241 -0.0029 -0.1567  0.1350
    1W        W60786  25.763  18.668   0.263  0.0008 -0.1541  0.1246
    1W        W60787  22.630  26.605   0.717  0.3154 -0.2650  0.1442
    1W        W60788   6.082   3.823   7.576  0.0127  0.1317  0.0687
    1W        W60789  15.366  16.365   0.201  0.0483 -0.1827  0.1681
    1W        W60790   0.989   1.683   9.038 -0.2413  0.1084 -0.1172
    1W        W60791   0.099  28.726   9.268 -0.1227 -0.0724  0.0613
    1W        W60792  27.534  12.566   6.504  0.0837  0.0109  0.2341
    1W        W60793  17.280  16.300   9.086 -0.1390 -0.4268  0.0097
    1W        W60794  14.947  26.269   7.584 -0.1924 -0.0343  0.6353
    1W        W60795   3.410   5.268   6.723  0.1423  0.1020  0.1190
    1W        W60796  27.457   9.925   0.269  0.2787 -0.0747  0.0917
    1W        W60797  13.295  17.962   7.719  0.0058  0.1374  0.2594
    1W        W60798  23.016  24.638   6.919 -0.0537 -0.2776  0.2051
    1W        W60799  16.721  14.654   0.941 -0.1561 -0.0198  0.0851
    1W        W60800  28.058  20.176   7.581  0.0867  0.1068 -0.2486
    1W        W60801   4.106   7.471   7.717 -0.1082  0.2328 -0.3270
    1W        W60802  27.141  28.033   6.784  0.4324 -0.1971  0.1522
    1W        W60803   3.351   5.624   8.179  0.0993 -0.2294  0.0414
    1W        W60804   9.307  15.702   7.577 -0.4047 -0.0969  0.4571
    1W        W60805  25.325  22.087   3.414 -0.1059 -0.0673  0.0797
    1W        W60806  14.492  11.212   7.037  0.2180  0.2024 -0.0639
    1W        W60807  19.576   8.828   0.491 -0.1872 -0.2309  0.0986
    1W        W60808  10.414   6.765   7.886  0.1757  0.3725  0.1006
    1W        W60809  29.443  20.774   1.248 -0.0996 -0.1259 -0.3275
    1W        W60810   5.761  27.262   7.226 -0.0232 -0.2028 -0.1537
    1W        W60811  19.434  28.664   7.631 -0.0152  0.1646 -0.1845
    1W        W60812   6.276   6.632   8.533  0.1898  0.1824 -0.0301
    1W        W60813  18.974  15.135   0.264 -0.3103  0.0585  0.1244
    1W        W60814  23.637   7.915   1.244 -0.0914  0.1080 -0.1512
    1W        W60815  17.189  18.163   9.409  0.0013  0.1467 -0.0709
    1W        W60816  23.508  15.806   0.541 -0.0409 -0.0812 -0.0301
    1W        W60817   0.932  28.445   8.833  0.1040 -0.0077 -0.0400
    1W        W60818   7.810  19.198   8.345  0.1012  0.0766  0.2834
    1W        W60819  26.794  29.153   1.429  0.2466 -0.0420  0.2774
    1W        W60820   5.150   2.370   6.813 -0.4523 -0.0075 -0.0881
    1W        W60821  25.322  17.639   1.531  0.1173 -0.0569  0.1210
    1W        W60822   7.506   4.955   1.280  0.1398  0.0523  0.1220
    1W        W60823  29.167  12.630   0.264 -0.2268  0.2530 -0.2671
    1W        W60824   2.161   1.734   2.040 -0.1353  0.4463  0.2202
    1W        W60825  15.613   0.549   6.724  0.0686  0.2507 -0.0486
    1W        W60826  27.043   2.298   0.319  0.2952  0.0690  0.0188
    1W        W60827  28.855   5.205   7.403 -0.1883  0.1297 -0.0796
    1W        W60828  13.767  12.037   6.743  0.1716  0.0997 -0.0507
    1W        W60829  20.575  21.932   8.745 -0.2428  0.0133  0.2739
    1W        W60830  24.457  28.707   2.869 -0.3463 -0.2440 -0.0653
    1W        W60831  18.636  22.772   0.437 -0.5064  0.2712 -0.1547
    1W        W60832  13.782  17.117   7.559  0.0114  0.1364 -0.0155
    1W        W60833  21.841  18.747   6.612  0.1817 -0.0370  0.1813
    1W        W60834   0.214   7.226   2.711  0.1267 -0.3071 -0.1394
    1W        W60835  10.517  16.974   0.093  0.0743 -0.2132 -0.2068
    1W        W60836  12.701  29.374   3.192  0.1906 -0.0694 -0.3163
    1W        W60837  10.045  24.547   1.346  0.1105 -0.2198 -0.3894
    1W        W60838   3.333   1.316   9.333 -0.0985  0.1831  0.0687
    1W        W60839  29.585  24.454   6.477 -0.1108  0.0944  0.2039
    1W        W60840  26.335  28.669   2.780  0.3478  0.0180  0.3176
    1W        W60841   0.535  16.121   8.516 -0.0082 -0.0142 -0.0391
    1W        W60842  18.353   3.067   9.312 -0.1088 -0.0613 -0.0521
    1W        W60843   5.554  17.265   7.205  0.0121 -0.1682  0.0902
    1W        W60844  18.326  14.436   0.459  0.1797 -0.0161 -0.1643
    1W        W60845   9.613   9.299   7.297 -0.2566 -0.0766  0.0220
    1W        W60846   0.806   0.929   8.156  0.0759  0.1218 -0.0100
    1W        W60847  27.965  13.538   8.384 -0.2581  0.0978  0.0479
    1W        W60848   3.156  20.930   1.065  0.0478  0.2003  0.1725
    1W        W60849  29.647  25.163   0.229  0.4284  0.0598 -0.2053
    1W        W60850  29.500   7.354   0.879 -0.0696  0.1185  0.0302
    1W        W60851   5.667   1.755   8.328  0.0025  0.0359  0.3499
    1W        W60852   0.668  14.437   0.573 -0.3576 -0.2845 -0.1247
    1W        W60853   0.637  26.113   7.007  0.2006 -0.0574 -0.0346
    1W        W60854  25.255   0.542   0.801  0.0975 -0.1512  0.0827
    1W        W60855   9.621  26.200   8.758 -0.2925  0.0362  0.0608
    1W        W60856  22.287   3.904   0.984 -0.0881  0.2990  0.0890
    1W        W60857   7.834  29.020   1.012 -0.0027 -0.3155  0.1545
    1W        W60858   2.599   8.549   7.386  0.2945 -0.0157 -0.0673
    1W        W60859  10.207   5.052   3.134 -0.1793  0.1092  0.0125
    1W        W60860   4.596  28.070   3.210  0.1206  0.0098  0.1020
    1W        W60861  29.730   4.654   9.370 -0.2515 -0.2616  0.2319
    1W        W60862  16.584   6.468   0.016 -0.0241 -0.0532  0.0035
    1W        W60863   0.491  15.615   8.665  0.3005 -0.0552  0.0056
    1W        W60864   0.159  16.714   6.283 -0.1165 -0.0165 -0.0150
    1W        W60865  21.058  24.855   8.917  0.3156 -0.0219  0.2389
    1W        W60866   5.867   8.579   8.298  0.1917  0.0347 -0.3193
    1W        W60867  26.854  28.746   2.475 -0.1292  0.2583 -0.0704
    1W        W60868  24.202  15.550   6.987  0.2214  0.0501  0.1012
    1W        W60869   9.047   0.117   7.486 -0.1156 -0.1239  0.0465
    1W        W60870  27.142  21.062   2.661 -0.0288  0.0763  0.4439
    1W        W60871  21.777   7.612   8.214 -0.2052  0.0201  0.0719
    1W        W60872  25.343  10.844   1.492  0.1008  0.0372 -0.0185
    1W        W60873  18.274   2.880   2.526  0.0394  0.1900 -0.0078
    1W        W60874   3.612  23.167   1.492 -0.0913 -0.0596 -0.2362
    1W        W60875  15.811   0.662   9.152  0.4105 -0.0338 -0.2027
    1W        W60876   0.448  20.074   8.237  0.0582 -0.0138  0.1862
    1W        W60877  24.047  11.159   9.123 -0.0448 -0.1521 -0.3545
    1W        W60878   2.687  13.818   0.783 -0.0097  0.1020  0.1559
    1W        W60879  17.201   0.578   2.377  0.1315 -0.1868 -0.0941
    1W        W60880   2.336   4.453   2.901  0.1809  0.3119 -0.1285
    1W        W60881  12.123   1.479   8.154  0.1220 -0.0777 -0.1333
    1W        W60882   5.373  17.829   8.025  0.1594  0.0619 -0.1149
    1W        W60883  11.424  27.642   2.449 -0.0243 -0.0237  0.3839
    1W        W60884  17.720  18.894   2.230  0.2110 -0.2722 -0.0574
    1W        W60885   5.199   1.128   0.144 -0.0185  0.2394 -0.0108
    1W        W60886  13.398  10.205   8.899 -0.0989  0.1610  0.0896
    1W        W60887   5.956   9.616   2.449 -0.0563 -0.4065  0.0024
    1W        W60888   6.604   4.524   0.142  0.2410  0.1672 -0.2107
    1W        W60889   2.990   6.671   2.345  0.1986 -0.0391 -0.4477
    1W        W60890  25.552  19.791   9.168 -0.1120 -0.2212 -0.0635
    1W        W60891  15.587  26.814   7.210  0.2939  0.1615  0.0158
    1W        W60892  14.251   0.114   0.190  0.2415 -0.1455  0.0589
    1W        W60893   7.245   0.540   6.667 -0.1523 -0.1085  0.1777
    1W        W60894  18.316  17.132   8.590 -0.1009  0.1698  0.2320
    1W        W60895   2.758  23.032   8.055 -0.0617 -0.1097  0.2112
    1W        W60896  19.160  18.311   0.124  0.1262 -0.0171  0.0114
    1W        W60897  17.255  24.081   1.766 -0.1832 -0.2639 -0.2100
    1W        W60898   3.681   2.752   9.081 -0.1916  0.1293  0.5269
    1W        W60899   1.627  12.701   0.997 -0.3521 -0.0554 -0.0450
    1W        W60900  27.466   7.650   2.706 -0.0737 -0.1520  0.2262
    1W        W60901  26.209   9.792   8.113  0.6929 -0.0717 -0.2566
    1W        W60902  10.453   5.314   0.751 -0.1956  0.1309 -0.2461
    1W        W60903   3.848  19.915   6.393 -0.1831  0.1619 -0.1177
    1W        W60904  22.707  17.833   7.506  0.3902  0.0543 -0.0504
    1W        W60905  20.390  23.132   2.397  0.2094  0.2809 -0.2563
    1W        W60906  24.034  22.868   7.273 -0.1085  0.0619 -0.2463
    1W        W60907  22.294   7.590   2.739  0.1837 -0.1509 -0.1450
    1W        W60908  14.299   0.934   8.738 -0.1927  0.0520  0.0777
    1W        W60909  27.562   1.728   2.374 -0.1456 -0.0192 -0.1172
    1W        W60910   0.601   8.069   9.231 -0.1248  0.2011  0.1406
    1W        W60911   0.721  23.955   8.703 -0.1110  0.3325 -0.2272
    1W        W60912  22.166  11.649   8.951 -0.1211  0.0127 -0.0198
    1W        W60913  29.458   1.639   8.703 -0.0056 -0.0020  0.1427
    1W        W60914  10.137   6.646   2.354 -0.0598 -0.1313  0.0592
    1W        W60915  21.795   5.769   6.776  0.1363 -0.1524 -0.1950
    1W        W60916  14.399  24.715   6.916 -0.0427  0.1499 -0.2236
    1W        W60917   4.248  11.173   8.881  0.2370 -0.3139 -0.0339
    1W        W60918  20.555   9.180   2.620  0.2164  0.0220 -0.1289
    1W        W60919  24.322  13.697   0.328  0.1602  0.2672 -0.2329
    1W        W60920  10.205   2.356   1.084  0.0718  0.1155  0.0428
    1W        W60921  28.554  10.535   7.624  0.0810 -0.1737 -0.0427
    1W        W60922  16.954   9.205   0.255 -0.2207  0.2381 -0.1470
    1W        W60923   4.522  27.699   1.874  0.2221 -0.0107  0.0355
    1W        W60924  24.964  28.407   8.256 -0.1098  0.1011 -0.1779
    1W        W60925   8.487  23.695   7.917 -0.1771 -0.1924 -0.3179
    1W        W60926  21.505  12.705   0.359 -0.0565  0.3086 -0.1359
    1W        W60927  26.019  28.025   9.026 -0.1398 -0.1617 -0.1578
    1W        W60928  29.305   2.679   2.817  0.3600 -0.0208 -0.1846
    1W        W60929   4.098  15.112   1.959  0.1257 -0.1492  0.0774
    1W        W60930  29.756  21.866   7.320 -0.0367  0.1459  0.0568
    1W        W60931   0.853   5.622   1.004 -0.0720 -0.1173 -0.1304
    1W        W60932   9.146  22.114   8.601  0.3034  0.0958  0.2008
    1W        W60933  11.780  28.328   2.743 -0.1699  0.0091 -0.0832
    1W        W60934  26.146  27.261   7.453  0.3106 -0.1690 -0.0730
    1W        W60935   9.770  25.928   8.330  0.0714 -0.1113  0.0979
    1W        W60936   5.485   3.836   6.813 -0.0958  0.1551  0.0818
    1W        W60937  20.861  24.091   0.705 -0.1486  0.0825  0.0491
    1W        W60938  11.610  25.279   1.653  0.0202 -0.2385  0.0337
    1W        W60939  26.698  27.752   1.345  0.2816  0.2780  0.0162
    1W        W60940   2.446   8.500   8.446  0.0081  0.0129 -0.1494
    1W        W60941  15.332  13.394   0.322  0.1541 -0.0542 -0.2107
    1W        W60942  19.861  15.672   6.593  0.0115  0.0412 -0.0593
    1W        W60943  28.032  18.948   3.079 -0.0748  0.1601  0.0023
    1W        W60944   3.997   7.160   2.831  0.2685 -0.0650  0.2770
    1W        W60945  28.735   2.973   8.838 -0.1978  0.1708 -0.1026
    1W        W60946  21.593   9.036   1.108  0.0807  0.2594 -0.1435
    1W        W60947  18.968   8.662   7.576  0.0597  0.1876 -0.1672
    1W        W60948  13.013  13.289   2.262  0.0628  0.0526 -0.1897
    1W        W60949   2.366   7.589   7.198  0.0838 -0.0314 -0.1645
    1W        W60950   3.955  16.107   9.181 -0.0486  0.4256  0.0794
    1W        W60951  29.330  23.100   6.615  0.0475 -0.0084  0.0813
    1W        W60952  10.674   7.759   0.220  0.0154  0.0938 -0.3541
    1W        W60953   7.741  13.060   2.024  0.0504  0.4081 -0.1285
    1W        W60954  10.049   7.129   2.009 -0.1771 -0.2148  0.2102
    1W        W60955  21.416   0.755   1.284  0.0086  0.1131  0.0824
    1W        W60956  18.080  23.513   8.429 -0.0330  0.0119  0.2135
    1W        W60957  17.865  16.897   8.227  0.0744  0.0113  0.2881
    1W        W60958  13.630   2.941   8.158 -0.1864 -0.2097 -0.0237
    1W        W60959   8.656   0.882   8.473 -0.1350 -0.1752 -0.2556
    1W        W60960  19.942   1.547   7.460 -0.1193  0.1347  0.2221
    1W        W60961   6.542  10.001   1.817  0.5260 -0.0468 -0.3364
    1W        W60962  29.450  13.813   8.615 -0.1105 -0.2708  0.0043
    1W        W60963  14.568  29.506   0.152  0.3039  0.0536 -0.1282
    1W        W60964  13.654  28.313   6.968 -0.2383 -0.0305 -0.4391
    1W        W60965   5.316  20.100   1.067  0.4855  0.3763  0.0009
    1W        W60966   2.222  27.772   0.003 -0.0484  0.1697 -0.1163
    1W        W60967   6.910  13.641   8.046 -0.1164  0.0207  0.5998
    1W        W60968  22.492  11.905   6.721 -0.0684 -0.2231  0.0634
    1W        W60969  26.919  25.363   6.680 -0.0097 -0.0504 -0.1172
    1W        W60970  25.523  24.220   2.772 -0.0936  0.0960 -0.0875
    1W        W60971  15.733   2.349   9.394  0.0966 -0.3672 -0.1575
    1W        W60972  19.888   8.983   1.358  0.0877  0.0790 -0.0881
    1W        W60973  23.355  11.485   7.309 -0.1645 -0.0931  0.2276
    1W        W60974   2.983  14.722   0.491 -0.2066  0.0527  0.2513
    1W        W60975  25.197  23.159   6.922  0.0132 -0.0492  0.0664
    1W        W60976  10.998  21.024   8.358  0.0287  0.2125 -0.0327
    1W        W60977   3.563  29.800   9.292  0.1609 -0.1766 -0.0207
    1W        W60978  17.591  15.522   0.374 -0.2501  0.0473 -0.0507
    1W        W60979   1.050  13.081   5.966  0.1279  0.0039  0.2480
    1W        W60980   5.103  14.236   7.858  0.0875  0.1366 -0.1954
    1W        W60981  25.190  16.931   7.243  0.0049 -0.0818  0.1376
    1W        W60982  10.068  14.343   1.483 -0.0521 -0.0689  0.0724
    1W        W60983  22.199  27.339   2.760 -0.0379  0.1230 -0.0649
    1W        W60984  10.369  17.951   7.766  0.0088  0.3179 -0.0421
    1W        W60985   7.151  24.879   2.124  0.0779 -0.1050  0.1694
    1W        W60986   7.195  18.213   9.045 -0.2299 -0.0527 -0.1796
    1W        W60987  19.828  26.120   7.753 -0.1697 -0.1997 -0.0474
    1W        W60988  18.737   9.039   1.025  0.0195 -0.1912  0.1980
    1W        W60989  24.169  22.699   8.851 -0.0066  0.1149 -0.0286
    1W        W60990  16.674  12.771   1.085 -0.0226 -0.1311  0.2538
    1W        W60991  29.103  29.046   7.972 -0.0320  0.0654  0.0790
    1W        W60992   8.301  28.330   1.742  0.0673 -0.0815 -0.0679
    1W        W60993   1.052  22.450   1.224 -0.0252 -0.1495  0.2380
    1W        W60994  15.048  18.390   7.759 -0.1193  0.1174 -0.1012
    1W        W60995  22.823   7.176   3.222  0.1305  0.0893  0.2818
    1W        W60996  24.315  14.845   8.742 -0.0407  0.0778 -0.1940
    1W        W60997   3.711  21.824   8.900  0.1440  0.2784 -0.0071
    1W        W60998  22.859  20.300   2.376 -0.2767  0.2637  0.1450
    1W        W60999  19.660   7.946   8.578  0.1137  0.1790 -0.0176
    1W        W61000   1.211  13.471   8.445 -0.3494 -0.1531  0.2489
    1W        W61001  23.837   9.659   8.163  0.0776  0.1456  0.1411
    1W        W61002   0.423   5.223   6.736 -0.2403  0.1064  0.0275
    1W        W61003  26.767  21.457   0.973  0.0498 -0.0942  0.3537
    1W        W61004   1.400   7.390   2.275 -0.4539 -0.1936 -0.1701
    1W        W61005  13.311  24.593   1.055 -0.0223  0.2305 -0.0934
    1W        W61006  20.795  17.059   0.129  0.0256 -0.0437 -0.0994
    1W        W61007  11.866  18.292   1.242 -0.1129 -0.1775  0.1661
    1W        W61008   4.280  17.496   5.620  0.1817  0.0296 -0.0424
    1W        W61009  11.682  14.111   1.354  0.0933 -0.1871  0.1147
    1W        W61010  10.734   5.227   6.233  0.0226 -0.1405  0.0534
    1W        W61011   6.531   3.777   8.463 -0.1813 -0.0388  0.2056
    1W        W61012   9.944  13.885   8.347 -0.0725 -0.0475 -0.0997
    1W        W61013  19.228   6.186   8.419  0.1091  0.1406  0.2176
    1W        W61014   1.539  19.168   7.067  0.0015  0.1701 -0.1178
    1W        W61015  24.033   3.281   1.856  0.0225 -0.2357 -0.0300
    1W        W61016  23.279  25.313   8.801 -0.2555 -0.0877  0.1367
    1W        W61017  20.691  22.617   9.189 -0.0314 -0.3643 -0.1929
    1W        W61018   5.734   9.866   8.786 -0.0968 -0.0725 -0.0944
    1W        W61019   0.764  11.654   2.976  0.1352 -0.0415  0.1254
    1W        W61020  27.428  19.478   0.552 -0.0573 -0.2613  0.2931
    1W        W61021   1.000  22.121   5.876  0.1058 -0.1039  0.0008
    1W        W61022   7.572   7.693   0.708 -0.3174  0.2689  0.1053
    1W        W61023  29.245  17.967   0.461  0.0567 -0.0234  0.0760
    1W        W61024  16.193  13.186   0.346  0.0480  0.0200 -0.1506
    1W        W61025  27.110  13.183   8.592 -0.3055 -0.0730  0.0078
    1W        W61026  23.997   7.018   2.506  0.3220 -0.1930 -0.1154
    1W        W61027  28.504  15.353   1.328 -0.2148  0.5249 -0.3886
    1W        W61028   9.388  14.353   9.025 -0.2018 -0.2596  0.3514
    1W        W61029   6.816  12.430   0.955  0.2436  0.0353  0.0188
    1W        W61030   8.614  28.787   8.340 -0.1054 -0.2187 -0.1162
    1W        W61031  28.123  23.415   7.484  0.1043 -0.0412 -0.0899
    1W        W61032  23.418  22.362   2.862  0.1057 -0.0716  0.0420
    1W        W61033  28.019   9.912   7.007 -0.0663  0.2364 -0.0171
    1W        W61034   9.628   2.089   0.560  0.1673 -0.0213  0.0981
    1W        W61035  13.626  15.290   9.283  0.1117 -0.0326 -0.3415
    1W        W61036  29.568  11.173   2.434 -0.1357 -0.1604 -0.2422
    1W        W61037  10.618   8.665   7.240 -0.1884  0.1285  0.1370
    1W        W61038  18.392  28.322   0.936 -0.0012  0.1656  0.3403
    1W        W61039  28.271  13.331   0.211  0.0940  0.3076 -0.1734
    1W        W61040   3.974  17.072   1.299  0.1793  0.2222 -0.1970
    1W        W61041  14.792   3.537   7.601 -0.1667 -0.2678 -0.3134
    1W        W61042   2.747   5.363   0.564  0.1387 -0.0436  0.3014
    1W        W61043   2.131  22.459   5.684  0.3584  0.1698 -0.2360
    1W        W61044  22.409  22.440   7.305 -0.0187  0.2109  0.0960
    1W        W61045  16.968  26.098   1.776  0.1881  0.1013  0.0448
    1W        W61046  25.199  27.760   1.674  0.1691  0.0367  0.2280
    1W        W61047   2.955   1.455   7.835 -0.3578 -0.0833 -0.0806
    1W        W61048   2.302  27.670   8.514 -0.0605  0.0095  0.0388
    1W        W61049   1.434  29.640   7.407 -0.0556 -0.1192  0.0883
    1W        W61050   9.588  16.282   2.779 -0.0607 -0.1702 -0.2736
    1W        W61051  26.299  25.848   6.081 -0.3092  0.1760  0.0262
    1W        W61052   5.005   7.911   7.817 -0.0314 -0.1022  0.0882
    1W        W61053  14.704   4.360   9.289  0.0874 -0.2748 -0.3576
    1W        W61054  23.560  17.517   0.344 -0.0928 -0.1280  0.0801
    1W        W61055  23.315  26.630   6.390  0.1822  0.0494  0.0328
    1W        W61056   3.295  20.434   1.531  0.2973 -0.0835  0.2367
    1W        W61057   3.494  22.449   7.435  0.0978  0.0892  0.1553
    1W        W61058  26.924   4.923   9.226 -0.1474 -0.0764 -0.0475
    1W        W61059   0.899   8.272   7.243 -0.0556  0.0469 -0.0578
    1W        W61060  24.386  10.533   1.788 -0.3324  0.0245 -0.0719
    1W        W61061   1.839  18.158   8.791 -0.0025  0.1382  0.0592
    1W        W61062  11.553  20.685   9.452 -0.4250 -0.0307 -0.1446
    1W        W61063   9.454   0.691   6.649 -0.0290 -0.2283  0.0100
    1W        W61064   9.624  21.720   1.727 -0.0544  0.1043  0.0451
    1W        W61065  18.968  24.661   7.603  0.0455 -0.0944  0.3183
    1W        W61066  20.056   2.389   2.293 -0.1251  0.3193  0.1165
    1W        W61067   6.829   0.642   0.266  0.1734 -0.0974 -0.1593
    1W        W61068  15.575  21.675   7.394 -0.1032  0.3906  0.0375
    1W        W61069  14.034  18.592   7.523 -0.2406 -0.0768 -0.1065
    1W        W61070  27.944  14.388   6.068  0.2181 -0.1767  0.0284
    1W        W61071  12.352  26.526   1.265  0.1195  0.0663 -0.0241
    1W        W61072  28.233   5.129   0.045 -0.0671 -0.0059  0.0818
    1W        W61073   6.880  20.414   6.371 -0.1062 -0.3564  0.0909
    1W        W61074   5.957  20.926   9.182  0.0626  0.1885  0.0062
    1W        W61075   4.897  11.707   7.719  0.0959  0.0433 -0.0364
    1W        W61076  22.511   3.057   8.618 -0.2713  0.3062 -0.1673
    1W        W61077  15.886   5.124   7.641  0.4661 -0.1599  0.0923
    1W        W61078  17.256  24.153   1.204  0.0958  0.1772 -0.1035
    1W        W61079  24.146  25.575   9.249  0.0450  0.1016  0.1542
    1W        W61080   5.998  18.065   0.157  0.0675  0.1137  0.2511
    1W        W61081   9.491   1.092   7.961 -0.2595 -0.2805  0.1431
    1W        W61082  19.630   7.535   7.577 -0.1294  0.1532 -0.2057
    1W        W61083  19.136  20.052   7.569  0.1130 -0.1062 -0.0423
    1W        W61084   4.767  16.450   9.285 -0.1018 -0.0477  0.2693
    1W        W61085  18.502  27.482   7.259 -0.0684  0.2562  0.1514
    1W        W61086  23.284   5.916   7.582 -0.4431  0.2453 -0.1575
    1W        W61087  23.911  26.658   7.535 -0.0214  0.1463 -0.0296
    1W        W61088   7.221   2.410   2.991  0.2584 -0.0402 -0.0214
    1W        W61089   1.060  10.457   9.179 -0.1594 -0.1863  0.1972
    1W        W61090  13.228  23.716   7.202  0.1226 -0.1535 -0.4929
    1W        W61091  13.662   1.884   2.008 -0.2765  0.0245 -0.1528
    1W        W61092  24.213   9.718   1.563  0.0748  0.2400 -0.2946
    1W        W61093   9.828  23.299   0.930  0.1234  0.1017 -0.1029
    1W        W61094  13.112  26.582   7.925  0.0218  0.0649 -0.1087
    1W        W61095   8.647  13.063   2.302  0.2204  0.2750  0.0438
    1W        W61096  27.699  21.390   0.603 -0.2812  0.3056 -0.1757
    1W        W61097   5.771   9.772   6.605  0.0789 -0.5375 -0.0631
    1W        W61098   5.644   4.972   3.428  0.1893  0.2217  0.2681
    1W        W61099  22.961   7.973   8.580  0.0428  0.4702  0.4054
    1W        W61100  25.891   6.315   0.146  0.3219 -0.1062  0.0733
    1W        W61101  15.253  16.365   1.783  0.4334 -0.1150  0.2421
    1W        W61102   2.469  21.190   8.566 -0.0681 -0.0596  0.0492
    1W        W61103   1.886  29.431   1.701 -0.0391  0.2507  0.1452
    1W        W61104  28.949   1.555   7.876  0.2977  0.0051 -0.1100
    1W        W61105   4.962   3.656   6.605  0.1882  0.2991  0.0320
    1W        W61106  27.986  13.985   8.214 -0.2203 -0.3668  0.1473
    1W        W61107  10.313   1.806   8.710  0.4007 -0.0346 -0.1236
    1W        W61108  18.849  19.202   1.350 -0.0774  0.2022 -0.0916
    1W        W61109   4.291   3.169   2.959 -0.0250  0.1405  0.0898
    1W        W61110  11.453  14.422   1.007 -0.0888 -0.1825 -0.0663
    1W        W61111  27.313   0.755   2.670  0.0085  0.2471 -0.3773
    1W        W61112   1.497  19.841   6.329 -0.2071 -0.0866 -0.2127
    1W        W61113  27.298   4.824   7.648 -0.1638  0.0602 -0.0230
    1W        W61114  18.355   6.179   6.900  0.1459 -0.1326  0.0933
    1W        W61115   5.947   0.105   8.338  0.2173 -0.0407  0.2628
    1W        W61116  18.779   0.765   9.051 -0.1256  0.0218 -0.2230
    1W        W61117   3.401  15.941   9.032 -0.1202 -0.0502 -0.0543
    1W        W61118   0.651   6.814   7.323  0.3550  0.1360  0.1299
    1W        W61119  20.776   8.893   7.167 -0.0649 -0.2703 -0.1146
    1W        W61120  26.832   6.757   8.707 -0.0184  0.1190  0.0394
    1W        W61121  24.602  27.207   0.577 -0.1027  0.3101 -0.2983
    1W        W61122   4.333  13.239   9.404 -0.1020  0.2829  0.2749
    1W        W61123  11.189  24.948   6.031 -0.0402 -0.1944 -0.2012
    1W        W61124  15.115   8.628   7.486  0.0944 -0.1715 -0.0747
    1W        W61125  26.037  29.654   8.026 -0.0449 -0.2459 -0.0349
    1W        W61126  12.479   8.556   9.377 -0.0108  0.0235 -0.0211
    1W        W61127   8.581  16.170   1.752 -0.4214  0.0413 -0.3083
    1W        W61128  28.928  18.684   6.003 -0.1964  0.0528 -0.0900
    1W        W61129  19.383   1.540   2.916 -0.1310 -0.1852 -0.1056
    1W        W61130  25.454  12.339   1.602 -0.2051 -0.3450  0.1294
    1W        W61131  20.614  24.969   0.949  0.2353  0.1512  0.1372
    1W        W61132   0.601  10.969   2.375 -0.0631  0.1327 -0.2159
    1W        W61133   0.947   4.608   8.664  0.0799 -0.3263 -0.0892
    1W        W61134   5.643  23.911   6.413  0.0981  0.0120 -0.2060
    1W        W61135   9.766   3.847   2.860 -0.1773 -0.0322  0.3195
    1W        W61136  19.023  28.515   2.137 -0.0786 -0.0028  0.1292
    1W        W61137  23.137  16.111   0.883 -0.2680  0.2052 -0.0548
    1W        W61138   3.997   9.010   8.649  0.2915  0.2012 -0.0181
    1W        W61139   8.911   0.316   1.102 -0.1399  0.0455  0.0435
    1W        W61140  26.031  16.228   8.473  0.2875  0.1007 -0.2896
    1W        W61141  20.034  29.072   9.405  0.1333 -0.0469 -0.0536
    1W        W61142  13.745  15.925   8.252  0.0331  0.1383  0.0049
    1W        W61143   0.108   9.456   0.353 -0.1437  0.2455  0.0306
    1W        W61144  15.849  22.713   1.153 -0.0164  0.1544  0.2835
    1W        W61145  24.537  26.812   3.204 -0.2056 -0.1820 -0.0635
    1W        W61146  11.768  11.057   9.169  0.0895 -0.2811 -0.2492
    1W        W61147   5.347   8.349   7.668  0.3057 -0.0056 -0.0540
    1W        W61148  14.743  18.830   7.961  0.0362 -0.0179 -0.0225
    1W        W61149  20.977  16.646   9.356 -0.0549  0.0181  0.2179
    1W        W61150  16.977  28.310   2.259 -0.0706  0.2777 -0.1482
    1W        W61151  28.071  10.929   2.230 -0.1803  0.0407  0.1844
    1W        W61152   7.223   1.595   7.916  0.1210 -0.4048 -0.1060
    1W        W61153  17.608  24.222   7.251  0.1414 -0.2814 -0.1893
    1W        W61154  27.786   5.828   0.540  0.0317 -0.2000 -0.1414
    1W        W61155  12.450   2.405   2.843 -0.3148  0.0964  0.1734
    1W        W61156   0.570  10.554   7.988 -0.1107 -0.2196  0.0930
    1W        W61157  28.069   2.216   6.444 -0.2189  0.0462 -0.1904
    1W        W61158   8.228   7.024   9.205 -0.0104  0.1898  0.2996
    1W        W61159  29.258  22.884   2.458  0.1598 -0.2852  0.3589
    1W        W61160  22.799  17.474   1.890 -0.0948 -0.0674  0.3823
    1W        W61161  29.554  18.841   6.962  0.0126  0.0647 -0.0631
    1W        W61162   0.876  18.363   7.615 -0.2351  0.1059  0.2011
    1W        W61163  13.665  16.382   7.762  0.0563 -0.0991  0.1782
    1W        W61164  25.461  14.258   1.894  0.2773  0.1103  0.1198
    1W        W61165  11.136  10.643   1.811  0.4888 -0.3984  0.0277
    1W        W61166  27.795   1.193   6.806  0.1869  0.2373  0.0314
    1W        W61167  23.899  14.032   1.467 -0.2159  0.3008 -0.0891
    1W        W61168  16.418   5.699   8.654  0.0151  0.0501  0.0853
    1W        W61169  25.723   5.875   8.940 -0.0208  0.3607  0.2119
    1W        W61170  10.085  22.115   8.340  0.1847 -0.0084  0.0947
    1W        W61171  23.015  22.855   8.130  0.1541  0.2967  0.1430
    1W        W61172  10.334  12.383   1.078 -0.1626 -0.1190  0.0149
    1W        W61173   3.697  19.598   6.782  0.1673  0.0757  0.2041
    1W        W61174   8.759  10.191   7.957 -0.1272 -0.1868 -0.1148
    1W        W61175  10.067   5.238   2.690 -0.3813  0.1386  0.2983
    1W        W61176   5.276  18.274   7.028  0.0531  0.0429 -0.2878
    1W        W61177  10.367  28.653   7.835 -0.2308 -0.0417  0.0208
    1W        W61178   6.585  10.917   1.612  0.1236 -0.1713  0.3127
    1W        W61179  23.876   5.701   6.411 -0.1103  0.1307 -0.0690
    1W        W61180  13.720  16.514   1.214 -0.2011 -0.0105 -0.2912
    1W        W61181   0.351  11.608   9.128  0.0505 -0.0784  0.1774
    1W        W61182  22.188   2.151   0.604  0.0258 -0.1618 -0.0108
    1W        W61183   7.270  27.218   0.650 -0.0619  0.0965 -0.0359
    1W        W61184   6.003  10.726   8.203  0.0434  0.1269  0.1591
    1W        W61185   0.303   9.262   2.301  0.2961  0.1008 -0.1327
    1W        W61186  21.967  15.303   0.477  0.1972 -0.1728  0.1123
    1W        W61187  26.515  26.544   2.911 -0.0106  0.0560 -0.0567
    1W        W61188   6.190  20.724   1.178 -0.4157 -0.3750 -0.1043
    1W        W61189  13.616  20.824   0.140 -0.1078  0.0338 -0.3727
    1W        W61190   3.380  15.228   6.551 -0.0493 -0.3140 -0.0848
    1W        W61191  22.643  14.838   7.995 -0.3700  0.0738  0.1437
    1W        W61192  12.396  26.187   2.703  0.0455  0.1058 -0.0614
    1W        W61193   5.003  29.107   0.665  0.0041  0.0078 -0.1968
    1W        W61194   5.746  10.067   9.314 -0.0180 -0.2560 -0.1664
    1W        W61195  15.998  28.136   1.910 -0.4074  0.0566  0.1216
    1W        W61196   4.254  19.284   1.525 -0.1058  0.0025 -0.4105
    1W        W61197  12.439  17.560   1.661  0.1042 -0.0492 -0.0204
    1W        W61198  14.366   7.621   9.112 -0.1349 -0.3778  0.2795
    1W        W61199  10.060   5.566   1.057 -0.1678  0.0390 -0.1555
    1W        W61200   1.316   6.488   1.538  0.1354 -0.2120  0.3627
    1W        W61201   6.487  29.242   2.790 -0.3376  0.0149 -0.1267
    1W        W61202   6.248   8.328   1.763  0.3082  0.0429 -0.1910
    1W        W61203  15.919  10.778   2.025  0.2496 -0.0833 -0.2975
    1W        W61204   1.590  20.333   8.929 -0.0781  0.1049 -0.3257
    1W        W61205   6.137  27.343   2.052  0.0407 -0.0709 -0.2200
    1W        W61206   4.907  13.992   2.218 -0.0012  0.1032 -0.0699
    1W        W61207  23.688  12.126   7.613 -0.1886 -0.4265 -0.1508
    1W        W61208  22.270  18.529   1.447 -0.0546 -0.0213 -0.1524
    1W        W61209  16.243  19.857   7.652 -0.2716 -0.2090  0.1428
    1W        W61210   8.743  27.953   8.415  0.3704 -0.0252 -0.2244
    1W        W61211   9.923   6.595   2.824  0.1313  0.2754 -0.0061
    1W        W61212  16.113  16.593   6.623 -0.2373 -0.2481 -0.1224
    1W        W61213  26.484  25.391   8.647 -0.3315  0.0064  0.0865
    1W        W61214   7.804  11.997   1.728 -0.1578 -0.0013 -0.1421
    1W        W61215  22.766   6.432   8.787 -0.2614  0.0477  0.1355
    1W        W61216  26.241   6.094   8.103  0.0130 -0.1518  0.0789
    1W        W61217  27.638  17.293   5.747 -0.1690  0.2455  0.1207
    1W        W61218  24.853   4.587   7.016 -0.1457  0.1602  0.0651
    1W        W61219  13.259  13.954   1.663  0.0474 -0.0163 -0.0688
    1W        W61220  27.488   8.092   8.153  0.1218 -0.1890  0.0966
    1W        W61221  19.254  19.445   1.518  0.2023 -0.1458 -0.0679
    1W        W61222  21.228  12.592   7.632 -0.1504  0.0765 -0.3027
    1W        W61223  16.318  26.615   3.096 -0.0950 -0.1792 -0.0274
    1W        W61224  13.328  13.590   8.245  0.0928 -0.0863 -0.0504
    1W        W61225  19.513   3.681   2.519  0.1285  0.0186 -0.3051
    1W        W61226  28.425  23.978   0.891  0.0837 -0.1490  0.1436
    1W        W61227  25.378   0.908   0.464 -0.0141 -0.3202  0.1991
    1W        W61228   3.047  12.614   2.400 -0.0426  0.3870 -0.2403
    1W        W61229  14.531   3.548   8.985  0.0684  0.0218  0.1164
    1W        W61230  12.627  13.986   8.241  0.0612  0.0968  0.0898
    1W        W61231   9.299  14.344   6.699  0.0778 -0.4022  0.0560
    1W        W61232   9.918  20.847   6.336 -0.4704  0.0081 -0.0331
    1W        W61233   6.793   0.429   9.246  0.0130 -0.1592 -0.1771
    1W        W61234   1.791   4.585   8.011  0.2581  0.0190 -0.0188
    1W        W61235  22.084  17.130   0.098  0.2804 -0.2047  0.0395
    1W        W61236  15.041   2.753   8.043  0.0185 -0.1662 -0.2555
    1W        W61237  23.501   1.009   7.351 -0.0039 -0.1670  0.1399
    1W        W61238  28.814   4.367   7.081  0.2982  0.0769 -0.3325
    1W        W61239   4.507  20.435   1.375 -0.1466  0.0977  0.0018
    1W        W61240  29.149  16.626   8.611  0.1883 -0.2779  0.4769
    1W        W61241   1.884  13.198   7.441 -0.1109 -0.5959 -0.1905
    1W        W61242  19.576  18.957   7.819 -0.0680 -0.1195 -0.1655
    1W        W61243  24.360   1.089   3.118  0.0393 -0.2645  0.0105
    1W        W61244  18.750  18.861   2.516 -0.0296 -0.1947  0.2295
    1W        W61245   9.062  12.829   1.991 -0.0754  0.0191  0.1739
    1W        W61246   7.842  19.273   7.842  0.2849 -0.0585  0.2935
    1W        W61247  22.489  11.447   8.509  0.0585 -0.3051  0.1076
    1W        W61248  18.962  19.604   7.328  0.2148  0.2642 -0.2154
    1W        W61249  13.422   2.885   1.181 -0.2875 -0.3371 -0.1169
    1W        W61250  14.667   3.980   7.834 -0.0729  0.3949  0.3527
    1W        W61251  23.692   8.944   1.987 -0.0499 -0.1242  0.1120
    1W        W61252   4.245   5.193   7.306  0.1190  0.1120  0.0880
    1W        W61253  10.716  12.053   0.275 -0.4115 -0.0340  0.1289
    1W        W61254  21.490  26.458   0.104  0.0521  0.0832 -0.1049
    1W        W61255   9.758  26.994   0.978 -0.3558  0.3227  0.2007
    1W        W61256   8.503  13.000   8.589  0.0996  0.3903  0.1384
    1W        W61257  10.601   4.005   7.767  0.1260 -0.0514 -0.2743
    1W        W61258  28.059   8.004   8.708  0.0497  0.2422  0.1457
    1W        W61259   2.561  10.782   8.072  0.0208 -0.0658  0.0221
    1W        W61260  18.319  10.527   0.761  0.2425  0.4695  0.1505
    1W        W61261  22.427  22.175   3.130  0.1259 -0.0053  0.1031
    1W        W61262   6.563  26.160   1.796 -0.3090  0.1698 -0.1353
    1W        W61263  23.470  29.607   9.091  0.1427  0.0323 -0.0647
    1W        W61264  11.030  25.193   0.599  0.0169  0.0063 -0.0651
    1W        W61265  27.954  25.475   3.048 -0.1619 -0.0087  0.3010
    1W        W61266  11.549  22.137   6.776 -0.1301 -0.4031 -0.1967
    1W        W61267   4.074  27.103   1.701  0.1395 -0.0057 -0.0666
    1W        W61268   4.034  15.423   0.293 -0.0038  0.0603 -0.0068
    1W        W61269  14.285  11.658   9.153  0.1076 -0.0508  0.1706
    1W        W61270  18.632  23.831   9.043 -0.1831 -0.0374  0.1346
    1W        W61271  11.592  26.926   2.941 -0.1072  0.1618  0.0440
    1W        W61272   9.989  12.603   0.131  0.0622 -0.0328  0.2617
    1W        W61273  13.609  16.222   2.288  0.0262 -0.0116 -0.1111
    1W        W61274  23.861   3.749   3.495  0.2486 -0.4868 -0.0007
    1W        W61275  25.756   8.510   9.144 -0.0096  0.0525  0.0587
    1W        W61276  10.425  29.393   1.277 -0.1336 -0.1110 -0.2752
    1W        W61277  11.939  19.681   1.089 -0.0735  0.1701  0.2562
    1W        W61278  29.585  11.500   1.540  0.0999  0.1081  0.1523
    1W        W61279   3.762  23.677   6.657  0.0289  0.0802  0.2412
    1W        W61280  10.542  13.343   9.351 -0.3535 -0.2612  0.2877
    1W        W61281   3.251  19.192   6.557  0.0164  0.0704 -0.2641
    1W        W61282  29.806   1.770   8.244 -0.2348 -0.1338 -0.2751
    1W        W61283   0.807  29.376   6.763  0.0026 -0.1551 -0.4119
    1W        W61284  16.988  22.456   0.760  0.0034  0.1339  0.3982
    1W        W61285   9.581   9.045   2.508  0.3801  0.1858 -0.3379
    1W        W61286  25.665  26.678   8.146 -0.3474 -0.0275 -0.0286
    1W        W61287  12.117  23.988   5.821  0.0282  0.1011 -0.0026
    1W        W61288   4.806  22.684   0.526  0.0709 -0.1340  0.1425
    1W        W61289  16.246  29.146   0.047  0.1644  0.1420  0.0282
    1W        W61290   8.125  29.560   1.801 -0.0183  0.0044 -0.0454
    1W        W61291  10.400  13.117   2.134 -0.1575  0.0079 -0.1504
    1W        W61292   7.144  16.400   1.157  0.0351 -0.2117 -0.1341
    1W        W61293  27.308  16.014   8.811  0.0255 -0.0875 -0.2311
    1W        W61294  19.096  22.780   7.716  0.0246  0.1756 -0.2516
    1W        W61295   7.187  10.316   2.644  0.0388 -0.1245  0.3853
    1W        W61296  25.296   9.252   8.063  0.1445  0.1777 -0.1269
    1W        W61297   4.962   7.961   1.075  0.0967 -0.2375 -0.0944
    1W        W61298  24.830  10.414   6.855 -0.1882  0.1053 -0.4082
    1W        W61299  19.991  26.551   7.531 -0.0472 -0.0799  0.0570
    1W        W61300  26.743  11.861   1.010 -0.0300 -0.0079  0.2029
    1W        W61301   0.276  12.357   8.466 -0.0031 -0.3913 -0.1359
    1W        W61302  17.212   6.788   0.671 -0.3874 -0.1509 -0.0065
    1W        W61303  17.074  28.616   2.647  0.0676 -0.3153 -0.1143
    1W        W61304  21.104  14.357   7.022 -0.1855  0.0856 -0.2986
    1W        W61305  10.280  26.154   6.520 -0.0739 -0.0362  0.1941
    1W        W61306   2.296   8.705   0.963  0.5396 -0.1428 -0.1989
    1W        W61307  19.784   4.899   1.198 -0.0980  0.2506  0.0525
    1W        W61308  22.403  11.460   2.189 -0.0802 -0.1528  0.0525
    1W        W61309  27.112  18.783   1.380 -0.0128  0.2663  0.1385
    1W        W61310  20.497  21.250   2.532 -0.0906 -0.0293 -0.1301
    1W        W61311   7.608  20.944   6.215  0.4506 -0.0234  0.0598
    1W        W61312  13.963  24.849   1.186  0.1244  0.0268  0.1156
    1W        W61313  20.513   3.313   8.648  0.2623 -0.0729 -0.0527
    1W        W61314  29.750   1.114   0.134  0.0380 -0.0107 -0.0237
    1W        W61315  18.035  14.697   1.824 -0.2755 -0.1396  0.1560
    1W        W61316   5.993  22.789   6.439  0.0988 -0.1239  0.3810
    1W        W61317  13.790  11.504   8.145  0.0588 -0.0108  0.1952
    1W        W61318   8.089  13.203   2.506  0.3331  0.0289  0.0810
    1W        W61319  17.900  25.738   3.489  0.2880  0.1659  0.1406
    1W        W61320  13.630  14.258   7.597  0.1290  0.1120  0.1662
    1W        W61321  25.192  16.702   7.735 -0.0455 -0.1173 -0.1325
    1W        W61322   3.701   3.540   2.455 -0.0887 -0.2528 -0.1448
    1W        W61323  13.160  24.448   2.012  0.1100 -0.2086 -0.0872
    1W        W61324   8.724   8.187   3.511 -0.1007  0.1894  0.1471
    1W        W61325  14.042  13.902   7.308  0.2959  0.3155 -0.0494
    1W        W61326  24.586   6.131   1.432 -0.4936  0.0586 -0.0761
    1W        W61327  14.030  17.133   8.231  0.2880  0.0100  0.0686
    1W        W61328  21.723   7.018   6.888  0.0011 -0.1482  0.1120
    1W        W61329   9.281   5.278   3.891  0.1242  0.0462  0.0225
    1W        W61330   9.912  14.420   8.472 -0.1160 -0.1646 -0.1111
    1W        W61331  24.051  14.622   0.802 -0.2243  0.2005 -0.0618
    1W        W61332  29.193  15.061   2.188  0.0444  0.2857 -0.2384
    1W        W61333  20.569  11.615   0.075  0.1636 -0.0592 -0.1745
    1W        W61334   3.978  12.975   9.017 -0.0380  0.0165 -0.0937
    1W        W61335  15.094  20.686   2.390 -0.0899  0.0367 -0.2642
    1W        W61336   0.415   9.471   2.737 -0.1329 -0.0949  0.0651
    1W        W61337   8.797  10.303   8.461  0.0065  0.3801 -0.0529
    1W        W61338   4.144  22.979   7.092  0.1509  0.0075  0.2210
    1W        W61339  24.081   1.138   7.960  0.0510  0.2248  0.5526
    1W        W61340  14.681  10.626   0.615  0.1824  0.0090  0.0214
    1W        W61341   8.360  17.131   7.081 -0.2759  0.0594  0.1328
    1W        W61342  22.004  23.833   8.986  0.0068  0.0525 -0.2509
    1W        W61343  12.969   0.152   9.051  0.1086  0.3210 -0.0785
    1W        W61344  29.563  22.450   6.653  0.0139 -0.3310  0.0071
    1W        W61345  18.246  15.100   0.020 -0.2766 -0.0694  0.2918
    1W        W61346   7.268   5.585   7.925 -0.2679 -0.0995  0.3186
    1W        W61347  10.730   5.773   7.934 -0.1034 -0.0136 -0.0158
    1W        W61348   2.964  19.070   7.397  0.0332  0.0703 -0.2535
    1W        W61349   2.847  10.339   0.275  0.2606  0.0733  0.0904
    1W        W61350  19.361   6.668   7.582 -0.0490 -0.1212 -0.1811
    1W        W61351   8.054  13.953   8.633  0.0259  0.0112  0.4295
    1W        W61352  27.893  23.042   9.414  0.2996 -0.1246 -0.3069
    1W        W61353  10.257  15.341   1.784  0.1437  0.1539  0.1187
    1W        W61354   6.436  12.330   0.617 -0.0605  0.1088  0.0487
    1W        W61355  10.421  27.669   8.741  0.2213  0.1329 -0.0909
    1W        W61356  18.195  25.291   9.238  0.0676  0.4482  0.1198
    1W        W61357  23.590  29.380   7.371 -0.1254 -0.0378 -0.3287
    1W        W61358  24.140   1.895   8.699  0.0465  0.2337  0.2807
    1W        W61359  16.980  11.877   0.273  0.0766 -0.1350 -0.0967
    1W        W61360  17.242  15.230   8.768 -0.1384  0.1663  0.1664
    1W        W61361  15.521   8.701   0.864 -0.2100  0.0361  0.0173
    1W        W61362   6.833  27.568   1.505  0.1988  0.1639 -0.0283
    1W        W61363  20.045  17.618   1.554  0.0763  0.0054  0.3000
    1W        W61364  15.209  28.747   7.260  0.1941 -0.1629 -0.1990
    1W        W61365  20.284  18.227   2.374 -0.0968  0.2326 -0.2125
    1W        W61366  19.411   2.532   8.814  0.1659  0.1180  0.0649
    1W        W61367  25.104  17.651   7.813  0.1002  0.2656 -0.3353
    1W        W61368  27.250  29.542   2.235  0.0570  0.3244  0.1325
    1W        W61369  24.569  29.423   7.568 -0.0909 -0.2462 -0.1252
    1W        W61370   7.823  25.214   7.787 -0.0862 -0.1309 -0.0476
    1W        W61371  14.363  17.883   7.605 -0.0960 -0.1455 -0.2225
    1W        W61372   0.156  21.797   2.250  0.2310 -0.2157 -0.2911
    1W        W61373  20.573  19.555   0.163 -0.2877  0.0397  0.0476
    1W        W61374  10.492   4.209   1.250 -0.0070  0.0129  0.3354
    1W        W61375  11.412  29.679   7.141  0.2238 -0.1497  0.0737
    1W        W61376   9.651  19.376   0.073 -0.2350 -0.0768  0.0805
    1W        W61377   7.791  21.085   1.199 -0.0699 -0.0407 -0.0627
    1W        W61378  27.154   9.079   6.615  0.0847 -0.3635 -0.0232
    1W        W61379   9.129   2.447   2.227  0.2650  0.2841 -0.1140
    1W        W61380  24.788   5.157   2.362 -0.0144 -0.1680 -0.2078
    1W        W61381  26.089  19.529   0.041  0.1805 -0.2054  0.0342
    1W        W61382   4.455  17.584   6.928 -0.2751 -0.3558  0.0037
    1W        W61383  21.297   6.128   2.092 -0.2736  0.1894  0.1270
    1W        W61384  28.410   1.625   0.972  0.3410  0.3584 -0.2185
    1W        W61385  18.852   4.896   0.794  0.1135  0.0160  0.0720
    1W        W61386  11.787   3.912   3.509 -0.1924  0.1135  0.0258
    1W        W61387  29.276   6.886   2.515  0.3280 -0.0142  0.2119
    1W        W61388  22.536   7.405   3.609 -0.3380  0.0122  0.2223
    1W        W61389   6.057  10.525   9.278  0.0142  0.0631  0.0123
    1W        W61390   8.460  28.815   7.896 -0.2232  0.1750  0.1945
    1W        W61391  17.707   5.284   8.218  0.2550  0.0696  0.1432
    1W        W61392  15.635   6.280   9.429 -0.0653  0.2890  0.0253
    1W        W61393   7.294   9.802   2.483  0.2221 -0.0864 -0.0609
    1W        W61394  12.019  13.531   1.706 -0.1269  0.0173 -0.0913
    1W        W61395  20.776   7.334   6.945  0.0115  0.0881 -0.2121
    1W        W61396  13.364  17.200   7.805 -0.0714 -0.2716  0.0990
    1W        W61397  18.879  19.186   8.288 -0.1533 -0.0969 -0.1198
    1W        W61398  17.677  26.449   9.014 -0.1955 -0.0938  0.1708
    1W        W61399  25.595   0.649   3.438 -0.2344  0.0311 -0.2433
    1W        W61400  16.954   4.722   8.812  0.1609 -0.3533 -0.0192
    1W        W61401  27.840  27.186   7.695 -0.0128 -0.0723  0.4434
    1W        W61402  21.194  16.567   7.489 -0.0448  0.3724  0.0672
    1W        W61403  23.617  24.004   7.736  0.1620 -0.1283 -0.1282
    1W        W61404   3.583  14.205   0.959  0.0788  0.0135 -0.0508
    1W        W61405  13.906  25.704   6.778  0.2016  0.2992 -0.1383
    1W        W61406   8.366  20.424   6.361  0.1525  0.1278 -0.0919
    1W        W61407  14.735   1.358   0.497  0.1029 -0.2515  0.0051
    1W        W61408  11.595  15.268   0.311 -0.0228 -0.3599  0.0832
    1W        W61409  12.319   6.364   9.408  0.1027 -0.1869  0.0551
    1W        W61410   9.768   5.230   2.213  0.0099  0.3256  0.1002
    1W        W61411  13.690   8.099   7.958 -0.2067  0.1664 -0.1826
    1W        W61412   3.543  11.827   2.994  0.1219 -0.0366 -0.0073
    1W        W61413  19.989  29.440   1.757 -0.0186 -0.1303 -0.1575
    1W        W61414   7.978  27.012   6.356 -0.1282 -0.3072 -0.1871
    1W        W61415  20.451  10.874   1.097 -0.2372 -0.0580 -0.0145
    1W        W61416  18.246  20.678   7.564 -0.2812  0.1014 -0.1061
    1W        W61417   1.677   3.454   8.179 -0.0253  0.0817 -0.2492
    1W        W61418  19.981  14.985   0.705  0.2243  0.1225 -0.0978
    1W        W61419  14.345   8.426   7.078 -0.0185  0.1303  0.4034
    1W        W61420  25.298  17.212   8.014  0.2848  0.1442  0.2768
    1W        W61421  23.918  16.591   1.852  0.0822  0.1279 -0.0290
    1W        W61422   7.272  12.729   2.277 -0.2612  0.4322  0.0666
    1W        W61423  29.626  17.254   8.184 -0.2986 -0.1477  0.1363
    1W        W61424  24.828  13.096   8.171 -0.1639  0.5027 -0.1890
    1W        W61425  29.772   1.949   1.263  0.0145 -0.2210  0.2293
    1W        W61426  28.616   5.035   0.849 -0.3207  0.2708 -0.0597
    1W        W61427   4.229  25.095   8.242 -0.1430  0.1314 -0.1002
    1W        W61428  18.354  20.646   0.926  0.2138 -0.1531  0.0424
    1W        W61429  13.560   4.981   0.062 -0.2918  0.2007 -0.0077
    1W        W61430  24.720  20.280   2.178 -0.0300 -0.0632  0.2935
    1W        W61431  26.955  25.441   8.454  0.0014  0.1399 -0.0129
    1W        W61432   4.118  26.181   7.415 -0.0612 -0.0739 -0.0152
    1W        W61433   3.220   1.903   6.509 -0.1292 -0.1142  0.0273
    1W        W61434  22.053  25.613   7.289  0.0218  0.0367 -0.0701
    1W        W61435   0.285  22.869   0.218  0.0895 -0.2214  0.0483
    1W        W61436   9.375  25.286   7.066 -0.1179 -0.0529 -0.0761
    1W        W61437  25.155  12.316   1.976 -0.0627  0.0987 -0.0937
    1W        W61438  10.842  15.876   8.388  0.2423 -0.1413 -0.2516
    1W        W61439  22.470  28.247   2.393  0.2396 -0.1900 -0.0086
    1W        W61440  19.380  12.451   1.393 -0.3021  0.0501 -0.0643
    1W        W61441  17.758  10.702   8.491  0.0032  0.0224 -0.0164
    1W        W61442   2.028  28.125   1.571  0.2590 -0.1440  0.0181
    1W        W61443   0.150  26.341   6.948 -0.1025  0.0809 -0.2206
    1W        W61444  18.462  21.919   0.466  0.2450  0.0954  0.0296
    1W        W61445   4.823  17.979   6.185 -0.0631  0.3752 -0.4413
    1W        W61446  17.564   3.147   2.830  0.0920 -0.1506 -0.0445
    1W        W61447  16.782  26.567   0.327 -0.1605 -0.0209  0.2264
    1W        W61448   4.573  14.938   2.081  0.1597  0.0044  0.0866
    1W        W61449  28.015  27.922   8.556 -0.4499  0.2246  0.0865
    1W        W61450  24.134   3.410   7.597 -0.4005  0.1298 -0.0046
    1W        W61451  26.338  19.596   1.889 -0.0751 -0.0177  0.2439
    1W        W61452  14.210   6.745   0.598  0.0955  0.0369 -0.0210
    1W        W61453  26.040   9.715   0.840  0.1815  0.3328 -0.0368
    1W        W61454  18.384  13.098   8.132  0.1036  0.1857 -0.2142
    1W        W61455  15.564  20.624   1.622  0.0615  0.1781  0.4062
    1W        W61456  17.977   4.465   8.214 -0.0694  0.0310 -0.0308
    1W        W61457  25.459  23.972   6.594 -0.1168  0.1036 -0.2047
    1W        W61458   8.358  15.798   7.247 -0.0692  0.1460  0.0703
    1W        W61459   8.835   2.656   9.094 -0.1276 -0.1516 -0.0225
    1W        W61460   8.321   2.581   7.976 -0.3374 -0.1379 -0.2035
    1W        W61461  15.317  27.888   7.568 -0.0350 -0.1289  0.0369
    1W        W61462  10.988  12.255   7.172 -0.1149 -0.0875 -0.0243
    1W        W61463  10.160  12.736   0.595  0.1872  0.1319  0.1914
    1W        W61464  20.362  10.799   9.010  0.1534  0.2079 -0.0493
    1W        W61465  17.177  17.502   8.209  0.0823 -0.1484 -0.0021
    1W        W61466  20.371  13.722   7.997 -0.3488  0.0829  0.0240
    1W        W61467  11.258   4.621   8.908 -0.1040  0.1923 -0.1727
    1W        W61468  23.804   9.331   1.485 -0.1315  0.1106  0.0370
    1W        W61469  26.868  28.830   7.948  0.0069  0.3122  0.0708
    1W        W61470  22.302   6.379   8.438 -0.0946  0.1095 -0.0301
    1W        W61471   3.666   7.234   7.877  0.1787 -0.0581  0.2125
    1W        W61472  29.058  19.120   7.965 -0.2085 -0.2294  0.2141
    1W        W61473  14.203  29.413   8.200 -0.1242 -0.0958  0.0720
    1W        W61474  20.943   7.881   8.142 -0.0009 -0.1511 -0.1860
    1W        W61475   9.111  23.656   8.251  0.1552  0.1630 -0.0402
    1W        W61476   1.384   4.523   0.891 -0.3569 -0.1527  0.1317
    1W        W61477   8.282  13.437   8.820  0.2321 -0.0704 -0.1390
    1W        W61478  20.428  24.992   0.420 -0.0921  0.0182  0.0949
    1W        W61479   8.339  15.880   9.427 -0.2308 -0.3049  0.2056
    1W        W61480   8.702   8.713   8.422 -0.1607 -0.0779  0.1600
    1W        W61481   5.351  11.088   7.030 -0.3966  0.1373  0.0378
    1W        W61482  16.606  23.498   7.307 -0.1727  0.2521 -0.0179
    1W        W61483  27.672  13.991   7.210 -0.3937 -0.1699  0.0296
    1W        W61484  23.339   7.394   8.035 -0.0781 -0.1638  0.1205
    1W        W61485   2.621   6.915   2.686 -0.0539  0.1583 -0.0972
    1W        W61486   0.023  12.408   9.445  0.0246  0.2062 -0.1141
    1W        W61487   0.918   0.107   1.633  0.1034  0.0219 -0.1182
    1W        W61488  14.513  27.508   0.266 -0.0012 -0.1240  0.1509
    1W        W61489  10.986  18.012   6.692 -0.0953  0.1889  0.1261
    1W        W61490   4.439   2.513   8.034 -0.1109  0.1816 -0.0493
    1W        W61491  27.224  13.308   2.033  0.1672  0.1368  0.2476
    1W        W61492  11.285  10.746   1.180  0.1633 -0.4316 -0.1754
    1W        W61493   2.788  14.335   6.427  0.0270  0.0997 -0.1450
    1W        W61494  22.276  12.966   7.095 -0.0318 -0.0303 -0.3806
    1W        W61495  15.773   8.446   6.761  0.0866 -0.1530  0.2524
    1W        W61496  21.358  23.917   9.112  0.2702 -0.1003  0.1224
    1W        W61497   1.630  21.691   8.361 -0.0405 -0.1348 -0.3915
    1W        W61498  16.248  29.253   1.633 -0.2856 -0.0189 -0.3862
    1W        W61499  23.522   4.353   6.981 -0.1674 -0.1806  0.3384
    1W        W61500  23.565  20.270   6.853 -0.1560 -0.0861  0.0139
    1W        W61501  22.091   8.534   2.880  0.2335  0.3179  0.0803
    1W        W61502  14.706   3.468   7.108  0.2873 -0.1256 -0.1104
    1W        W61503  20.393  13.271   7.788  0.3468  0.1510  0.2800
    1W        W61504  14.556   0.304   7.994  0.0883 -0.1032  0.3041
    1W        W61505  18.692  26.405   2.834  0.0400  0.2907  0.0136
    1W        W61506  14.056  17.946   0.067 -0.0576  0.0658  0.0146
    1W        W61507  21.953  17.489   1.586 -0.1642  0.0608 -0.0239
    1W        W61508   3.389  29.521   2.508 -0.2042 -0.0529 -0.0905
    1W        W61509   0.573  29.016   9.295 -0.1727  0.1337 -0.4630
    1W        W61510  25.806  18.396   8.830  0.2555  0.2227  0.0374
    1W        W61511   2.108  13.080   1.879 -0.0401 -0.1150 -0.1426
    1W        W61512  17.465   6.877   0.250 -0.0064  0.0776  0.1701
    1W        W61513  27.934   0.099   1.013  0.0042  0.0419 -0.0888
    1W        W61514   3.760   9.081   0.938 -0.0042  0.0309  0.0532
    1W        W61515  26.371  24.367   2.675 -0.1465  0.1619 -0.1885
    1W        W61516  23.542   0.074   0.447 -0.0814  0.0010  0.3366
    1W        W61517   2.430   0.689   7.413  0.1116  0.0526  0.0698
    1W        W61518   2.542  16.705   8.231  0.2298  0.3627 -0.0321
    1W        W61519  15.765   6.287   8.264  0.0521  0.0512  0.0515
    1W        W61520  18.924   2.854   7.993 -0.1052 -0.1101  0.0934
    1W        W61521   4.822  16.809   2.386 -0.0204  0.0553  0.0752
    1W        W61522  14.878  14.554   0.673 -0.1642 -0.1909 -0.1639
    1W        W61523   2.392   2.925   6.913 -0.0013 -0.0543  0.0837
    1W        W61524  10.351  13.471   2.978  0.2113  0.0725  0.1121
    1W        W61525  27.354   7.598   0.143  0.0660  0.2143 -0.1430
    1W        W61526  17.395   9.130   8.748 -0.1486  0.0709  0.1220
    1W        W61527   4.622  10.072   7.373  0.0225 -0.2213  0.0409
    1W        W61528  12.769  18.164   8.882 -0.0095 -0.1621  0.0537
    1W        W61529   1.499   7.214   7.585  0.4753  0.0883 -0.2225
    1W        W61530   9.072  24.692   0.735 -0.0122  0.2005 -0.2940
    1W        W61531  27.817   1.500   7.991  0.3609  0.2764 -0.0060
    1W        W61532   6.135   4.003   2.608 -0.2341  0.1600  0.0475
    1W        W61533  16.092  28.099   6.817  0.1118 -0.0011 -0.1212
    1W        W61534  28.019  18.430   1.351 -0.0371  0.1187 -0.0359
    1W        W61535   0.243  10.790   2.030 -0.1598 -0.1632 -0.2747
    1W        W61536   2.233   2.176   7.214 -0.2540  0.0895 -0.1186
    1W        W61537  13.365   0.451   1.569  0.2036  0.1892  0.3101
    1W        W61538  17.643  22.411   2.961  0.0614 -0.1194 -0.0506
    1W        W61539  13.189   2.175   7.534 -0.2148 -0.0779  0.1562
    1W        W61540   4.728   2.862   0.086 -0.2436 -0.0490 -0.1742
    1W        W61541  26.499   5.049   7.210 -0.2042  0.0345  0.0708
    1W        W61542  20.253  23.110   1.383  0.0007  0.2648  0.1439
    1W        W61543  20.589  25.894   0.798 -0.1114  0.1331  0.0517
    1W        W61544   4.838   4.437   6.660  0.3324  0.0736  0.1274
    1W        W61545  14.132   4.704   2.351 -0.2458  0.1838  0.1801
    1W        W61546  19.107  11.705   6.671 -0.0947 -0.0803  0.1478
    1W        W61547   1.808  20.663   5.966  0.0405 -0.0534 -0.4150
    1W        W61548   8.603  17.588   7.239  0.1075  0.1767  0.1291
    1W        W61549  28.800  13.894   9.238  0.1320  0.3165  0.1622
    1W        W61550  20.504  13.168   9.224  0.0697  0.1511  0.0021
    1W        W61551   4.403   6.717   2.667 -0.0000 -0.0078 -0.0276
    1W        W61552  21.178  20.801   2.668  0.0419  0.1976  0.2857
    1W        W61553   0.706  24.653   8.146  0.2643  0.1342  0.0766
    1W        W61554  24.540  26.460   2.783 -0.2431 -0.0952  0.1553
    1W        W61555  10.191  22.380   0.717  0.0690 -0.0728 -0.1565
    1W        W61556   6.048   4.234   1.373 -0.0769 -0.1922  0.3689
    1W        W61557   8.566  27.352   3.240  0.0771 -0.2837 -0.0104
    1W        W61558   1.765  21.418   1.709  0.1128 -0.0647 -0.1364
    1W        W61559  26.318  26.288   7.567 -0.0789 -0.4027  0.0972
    1W        W61560  16.825  10.001   1.051 -0.2523 -0.0700  0.1259
    1W        W61561  23.375  18.458   8.153  0.0174 -0.1959  0.0990
    1W        W61562   0.051  15.781   7.700 -0.0480 -0.0528  0.2546
    1W        W61563  10.685   7.021   9.184 -0.0326 -0.1310 -0.0165
    1W        W61564  14.116  12.890   8.934  0.1172 -0.1573 -0.0569
    1W        W61565  10.288  24.293   7.949  0.2264 -0.3568 -0.0178
    1W        W61566  16.296  13.395   8.186 -0.0298 -0.2976  0.1162
    1W        W61567  21.056  13.708   0.448 -0.1479 -0.1043 -0.0109
    1W        W61568   9.491  15.104   1.864 -0.0921 -0.0486  0.1247
    1W        W61569   6.858   2.699   7.124  0.3487  0.0586 -0.2444
    1W        W61570   4.846   9.392   0.019  0.4119  0.0049 -0.0812
    1W        W61571   2.427   8.205   9.323 -0.2191 -0.1488  0.0239
    1W        W61572   4.930   7.380   2.497  0.1283 -0.0550  0.0759
    1W        W61573   1.002  28.409   7.892 -0.0395 -0.1801 -0.2307
    1W        W61574  25.696  27.683   9.261 -0.1984  0.0144 -0.1468
    1W        W61575  25.840   4.414   0.475 -0.0010 -0.4593 -0.1070
    1W        W61576  26.220   7.705   8.706 -0.1388  0.0383  0.1287
    1W        W61577  12.671  29.236   0.116  0.1382  0.2264  0.2401
    1W        W61578  14.508   7.041   3.326  0.2364 -0.0310 -0.1669
    1W        W61579  28.289  25.111   1.896 -0.0094  0.0557  0.1932
    1W        W61580   4.552  10.769   0.766  0.0730  0.1830 -0.1651
    1W        W61581  18.077  15.390   6.905 -0.0768  0.1776 -0.1644
    1W        W61582   1.859  29.779   1.337 -0.1140  0.0928  0.1086
    1W        W61583  18.410   1.184   0.864 -0.1222  0.6362  0.3307
    1W        W61584  19.513   9.916   7.142  0.0698 -0.0568 -0.0138
    1W        W61585  15.640   4.099   6.783 -0.1673  0.0491  0.2042
    1W        W61586  24.476  24.218   2.695  0.1323 -0.3087  0.0885
    1W        W61587  11.942   6.779   9.044 -0.3429  0.1162 -0.2539
    1W        W61588  27.959  20.132   8.121 -0.1781  0.1835 -0.2213
    1W        W61589   8.690  19.808   0.035  0.0768 -0.0644 -0.0925
    1W        W61590   4.843  23.426   1.085 -0.1857  0.1709 -0.0958
    1W        W61591  19.054  28.919   8.570  0.0733 -0.1642  0.3942
    1W        W61592  23.083  24.200   1.832 -0.0175  0.0163 -0.2807
    1W        W61593  13.579  20.251   9.222  0.1415 -0.2260 -0.2601
    1W        W61594   6.600   6.897   7.988 -0.1306 -0.1376  0.1091
    1W        W61595  26.860  12.893   8.906  0.1530  0.1804 -0.0784
    1W        W61596   4.210  14.100   9.268 -0.0342  0.0820  0.1467
    1W        W61597   3.520  29.676   6.645 -0.0092  0.2149 -0.0682
    1W        W61598   2.080   2.796   7.753  0.0270  0.1690  0.3773
    1W        W61599  25.827  27.861   6.772 -0.1920 -0.0343  0.1862
    1W        W61600  28.888  14.321   1.836 -0.0686  0.4977  0.1168
    1W        W61601   1.044  12.658   8.939 -0.0510 -0.0210  0.1089
    1W        W61602   9.927  21.611   0.682  0.0049  0.3559 -0.1614
    1W        W61603  29.121   9.627   1.531 -0.2496 -0.0763 -0.0864
    1W        W61604  28.382  22.041   2.757 -0.0979  0.2143 -0.0832
    1W        W61605  25.504  28.411   9.072 -0.0789 -0.0068 -0.1574
    1W        W61606   7.900  11.002   9.428 -0.1024 -0.0810  0.1288
    1W        W61607  21.875  19.351   8.650  0.0071  0.1721  0.0805
    1W        W61608  24.142   7.490   1.788  0.0518  0.0246  0.0209
    1W        W61609  27.410  20.425   9.129 -0.4185 -0.0877  0.0641
    1W        W61610   8.944   3.519   4.140 -0.0530  0.3453 -0.0454
    1W        W61611  23.722  23.904   2.369 -0.0760  0.1278 -0.0188
    1W        W61612  12.936  11.294   8.806 -0.2157 -0.3178 -0.0825
    1W        W61613  12.663  20.826   7.912  0.0813  0.1424  0.1934
    1W        W61614  22.301  15.681   6.874  0.1874 -0.0099  0.1513
    1W        W61615  27.495   0.102   0.028  0.1833  0.0979  0.0283
    1W        W61616  20.141  11.313   7.591  0.0328  0.0500 -0.0328
    1W        W61617   2.189  13.954   0.624  0.1062  0.0237  0.1409
    1W        W61618  10.248  25.384   2.156 -0.0595  0.4111 -0.1948
    1W        W61619  16.043  24.154   0.386 -0.0839 -0.1795  0.1745
    1W        W61620   5.360  17.962   9.168 -0.0306  0.0159 -0.1949
    1W        W61621   2.145   7.030   2.564 -0.3418  0.2017  0.1544
    1W        W61622  15.277  13.931   8.592 -0.1893 -0.2172 -0.0573
    1W        W61623  25.335   6.203   2.380  0.1966  0.2058  0.3539
    1W        W61624  15.699  13.322   6.919 -0.0454  0.0591  0.0374
    1W        W61625  11.188  21.291   1.701  0.1300 -0.1797 -0.0412
    1W        W61626  19.514  28.964   7.163  0.1178 -0.2469 -0.0282
    1W        W61627  28.205   9.537   8.378  0.2385 -0.1864 -0.1808
    1W        W61628  12.073   7.455   0.477  0.2125 -0.0515 -0.1315
    1W        W61629  26.790  20.117   1.192  0.1330  0.2231 -0.1237
    1W        W61630  16.063  27.000   2.031 -0.1946 -0.2244  0.0582
    1W        W61631   5.505  20.332   6.496 -0.0321  0.0466  0.1602
    1W        W61632  22.687  15.065   6.166 -0.1373 -0.2101  0.0601
    1W        W61633  20.024   7.438   9.332 -0.0955  0.0386 -0.1248
    1W        W61634   8.421  29.361   2.671  0.2922 -0.1270 -0.5499
    1W        W61635  26.644  20.179   1.713 -0.0376  0.1201 -0.1072
    1W        W61636   0.244  20.757   0.337 -0.1124  0.2567  0.3689
    1W        W61637   9.028  26.348   7.777  0.1618 -0.0346 -0.1262
    1W        W61638   2.053   7.521   8.894  0.1993  0.2598  0.1062
    1W        W61639  10.297   5.186   1.285  0.1448  0.2889 -0.0059
    1W        W61640   5.768   8.663   7.643  0.0009 -0.0634  0.3088
    1W        W61641  21.432   2.872   7.680 -0.0925 -0.0594 -0.1390
    1W        W61642  29.163  14.255   9.420 -0.0279  0.2968 -0.1455
    1W        W61643  13.159   2.058   1.897  0.2132  0.1538 -0.1547
    1W        W61644   9.656  23.239   8.637 -0.0856 -0.1124  0.1596
    1W        W61645  23.755  25.447   2.380  0.4733 -0.1485 -0.1373
    1W        W61646  20.589   0.549   2.245 -0.2924  0.0781  0.1590
    1W        W61647  17.237  26.955   8.550 -0.0338  0.2364 -0.0238
    1W        W61648  22.112  25.126   9.263 -0.0492  0.2289  0.2327
    1W        W61649  15.373   3.586   2.862 -0.0944  0.0507  0.1674
    1W        W61650   4.702  14.017   1.239 -0.1895  0.1281 -0.2128
    1W        W61651  14.056  27.620   0.502  0.1562 -0.0924 -0.2200
    1W        W61652  26.040  21.755   1.671 -0.0507 -0.0165 -0.3294
    1W        W61653  18.537  12.343   7.084  0.2347  0.3751 -0.2412
    1W        W61654  24.465   1.201   7.629  0.0925  0.2061  0.1694
    1W        W61655   1.295  29.745   9.073 -0.2874  0.0588 -0.3659
    1W        W61656  27.928  17.012   7.640  0.1104  0.1659 -0.1909
    1W        W61657   4.773   3.893   0.247 -0.0561 -0.0245  0.2337
    1W        W61658   3.334   1.449   0.395  0.0020  0.1337 -0.2209
    1W        W61659  19.509  12.174   6.996 -0.0529  0.0191  0.0583
    1W        W61660  29.142   8.825   8.247 -0.0712  0.1376  0.1915
    1W        W61661   2.287  15.364   5.742 -0.0996 -0.0222 -0.5757
    1W        W61662  13.504   0.610   2.070 -0.0571 -0.0492 -0.1616
    1W        W61663  26.576   2.875   1.441 -0.0348  0.2067 -0.1992
    1W        W61664   0.380  18.436   1.140  0.1999 -0.0585 -0.0071
    1W        W61665  26.505  20.712   1.708  0.1496  0.2934 -0.0862
    1W        W61666  29.082  26.368   6.716  0.0479  0.2462  0.0121
    1W        W61667   3.285  19.431   0.281 -0.0186  0.0899  0.3946
    1W        W61668  20.815  20.306   0.149 -0.0599  0.0528 -0.0845
    1W        W61669  27.339  21.395   1.824 -0.3149  0.0494  0.1603
    1W        W61670   2.308  23.190   8.813  0.1174  0.2646 -0.0242
    1W        W61671   3.820  20.825   7.054 -0.1197  0.0456  0.0104
    1W        W61672  21.181  21.261   2.007  0.1706 -0.0467  0.0678
    1W        W61673  28.234  10.361   8.729 -0.0999 -0.1983  0.2227
    1W        W61674  15.644   7.177   2.489  0.1328  0.0373 -0.1074
    1W        W61675  22.475   4.507   7.947  0.0039 -0.4797 -0.0730
    1W        W61676   4.962  12.366   6.433  0.1930 -0.0490 -0.0613
    1W        W61677   1.204  21.820   6.253 -0.0425 -0.0372  0.2093
    1W        W61678  25.745   6.256   8.081  0.2343 -0.0142  0.2707
    1W        W61679  12.220  13.431   0.947 -0.1045 -0.0212  0.2689
    1W        W61680   8.077   4.911   3.205 -0.0965 -0.1237 -0.2992
    1W        W61681  11.458  29.168   8.672 -0.1751 -0.0200  0.3218
    1W        W61682  25.076  15.301   6.545 -0.0285 -0.2367 -0.3997
    1W        W61683  17.449   5.000   7.119 -0.1433  0.0422 -0.3825
    1W        W61684  21.977   7.185   5.990 -0.1961 -0.0243  0.0704
    1W        W61685  15.907   9.367   8.286 -0.2326 -0.1278  0.0207
    1W        W61686   1.832  17.135   2.135  0.2401 -0.4119 -0.2023
    1W        W61687  23.017  10.559   1.648  0.1599 -0.0485 -0.0294
    1W        W61688  24.456  22.165   1.080  0.1934 -0.0805 -0.1974
    1W        W61689  16.293  11.291   8.268 -0.1534  0.2601 -0.0715
    1W        W61690  10.093  20.636   0.507  0.3207  0.1922  0.0546
    1W        W61691   3.389  17.124   7.875  0.2652  0.1679 -0.0735
    1W        W61692   5.176  13.999   7.070 -0.0858 -0.1539  0.1423
    1W        W61693   2.335  12.042   6.418  0.1613 -0.1948  0.0174
    1W        W61694   2.106   5.728   0.843  0.2099  0.2018 -0.2761
    1W        W61695   6.721  10.207   2.785 -0.3293  0.2096  0.1247
    1W        W61696   8.303  22.705   8.742  0.1173 -0.2008  0.0117
    1W        W61697   0.389  25.692   1.933  0.3569 -0.0855 -0.2164
    1W        W61698  29.687   2.158   0.357 -0.0588 -0.2708 -0.0772
    1W        W61699  15.966  27.711   8.673 -0.1580 -0.0145 -0.0931
    1W        W61700  19.749   1.927   1.620  0.2510 -0.1589 -0.0411
    1W        W61701   7.510  11.072   0.746  0.3009 -0.1279 -0.0932
    1W        W61702  21.452  27.000   0.948  0.4316  0.1435  0.0195
    1W        W61703  14.517  12.744   1.488  0.1297 -0.2343 -0.1664
    1W        W61704   0.158   0.397   8.961 -0.0517 -0.1403 -0.0505
    1W        W61705   7.012  29.034   8.249 -0.0366  0.2115 -0.1967
    1W        W61706  14.369  19.019   6.870 -0.1211 -0.0134 -0.2675
    1W        W61707  13.927  21.089   9.081  0.2197  0.0835 -0.2358
    1W        W61708   4.166   7.591   1.207  0.0721  0.0124  0.2511
    1W        W61709  26.502  11.289   7.265  0.3756  0.4047  0.0390
    1W        W61710  15.740   4.053   8.471  0.3668 -0.0511  0.0926
    1W        W61711  13.809   5.523   0.241  0.0115 -0.3054 -0.1924
    1W        W61712   6.470  11.556   9.080 -0.3049 -0.0862  0.0223
    1W        W61713  29.728   2.203   0.875  0.1280  0.1682 -0.2394
    1W        W61714  26.793  21.520   1.855  0.3239  0.0508 -0.1624
    1W        W61715  29.687  18.720   9.374 -0.2095  0.3508  0.0569
    1W        W61716   7.719   4.838   8.257 -0.2971  0.1593 -0.0356
    1W        W61717   4.050   3.109   1.700 -0.1088 -0.0337 -0.4324
    1W        W61718  12.357   8.615   7.642  0.1451  0.0751  0.0096
    1W        W61719  29.271   5.992   7.119  0.0629  0.2282  0.1136
    1W        W61720   9.609  28.862   0.037  0.2101 -0.2235  0.0531
    1W        W61721  12.569   8.844   7.232  0.1030 -0.0412 -0.1080
    1W        W61722  26.596   6.110   1.605 -0.3245  0.2618  0.0410
    1W        W61723  27.243   7.812   6.160  0.1469  0.1028 -0.1275
    1W        W61724   2.641  23.612   8.919  0.0017 -0.0799 -0.0021
    1W        W61725  10.854  11.293   8.943  0.1409  0.1589 -0.0884
    1W        W61726  10.579   0.396   8.705  0.0984  0.1013  0.1047
    1W        W61727  11.065  17.843   8.210 -0.0924  0.3203 -0.0858
    1W        W61728  17.144  15.723   0.450 -0.0646  0.2706  0.0630
    1W        W61729  18.906  26.619   1.960  0.1630 -0.0178  0.0822
    1W        W61730  26.059   8.279   6.586 -0.0060  0.0810 -0.4066
    1W        W61731  17.549  12.240   2.445  0.2738 -0.1227  0.0885
    1W        W61732   1.545  23.322   9.336  0.0211  0.1401  0.0869
    1W        W61733  22.986  29.760   0.282  0.0667  0.1783  0.0437
    1W        W61734   1.975  10.802   8.796 -0.1703 -0.0645 -0.1243
    1W        W61735  22.875  23.178   3.642 -0.0930  0.0420 -0.0412
    1W        W61736  12.044   6.297   0.732  0.1509 -0.3271 -0.0443
    1W        W61737  16.301  23.521   8.217 -0.3413 -0.3603  0.1199
    1W        W61738   1.048  29.744   1.156  0.0481  0.0091  0.1827
    1W        W61739  26.571  25.358   0.702  0.0055  0.0951  0.2677
    1W        W61740  21.695  22.207   2.880 -0.0592  0.0692 -0.1452
    1W        W61741   0.922  29.815   6.161 -0.2397  0.2528 -0.0066
    1W        W61742  17.025   3.276   7.747 -0.2753 -0.0160 -0.1730
    1W        W61743   2.960  23.726   1.782 -0.0213  0.2927 -0.0765
    1W        W61744  10.782   8.303   2.446 -0.0910 -0.1430 -0.0741
    1W        W61745   3.903   6.662   1.372  0.2290 -0.0725  0.1757
    1W        W61746   4.591   4.702   1.129 -0.2793  0.1625 -0.0459
    1W        W61747  12.400  17.791   7.700  0.1108  0.3872 -0.0977
    1W        W61748  19.456   0.230   7.285  0.0695 -0.0498 -0.0080
    1W        W61749  20.526  10.391   0.102  0.0664  0.0085 -0.0036
    1W        W61750  27.030  23.871   3.062  0.3029 -0.0633 -0.2842
    1W        W61751  10.626  26.477   6.832  0.1211  0.2371 -0.1560
    1W        W61752  16.812  23.988   8.325 -0.1533 -0.0248 -0.1710
    1W        W61753  24.669  27.457   0.087 -0.3711  0.0811 -0.0654
    1W        W61754  26.795   0.718   7.302  0.0162  0.0913  0.0990
    1W        W61755  28.380  18.451   0.990  0.1956  0.1950  0.4240
    1W        W61756  12.832   8.443   7.634 -0.2622  0.0159  0.2417
    1W        W61757   1.554  15.383   7.907  0.1581  0.0372  0.0878
    1W        W61758   5.115  23.506   0.710  0.1600  0.2404  0.0004
    1W        W61759  28.504   4.404   7.500  0.0487  0.1551  0.5513
    1W        W61760  18.045  12.167   8.396 -0.1248 -0.1897 -0.0970
    1W        W61761  24.096   8.233   2.350 -0.0881 -0.0857  0.1810
    1W        W61762   5.067  26.138   0.587 -0.2429 -0.1546 -0.1727
    1W        W61763   1.329  24.977   7.018 -0.2416 -0.1000  0.0931
    1W        W61764   2.792  20.139   0.556 -0.0128 -0.2771  0.0743
    1W        W61765   8.531  10.558   1.525  0.0420 -0.0077  0.0861
    1W        W61766  12.352  27.844   2.202  0.1104 -0.2448  0.0619
    1W        W61767   5.341   1.007   3.043 -0.0422 -0.0442 -0.0093
    1W        W61768  20.712  18.080   1.237 -0.2140  0.0472 -0.1855
    1W        W61769  27.219  23.671   9.078  0.1996 -0.1736  0.0546
    1W        W61770  21.292   2.215   8.517  0.3686  0.0718 -0.4253
    1W        W61771   3.403  19.594   0.739  0.1894 -0.0592 -0.3285
    1W        W61772  27.103  21.964   6.415 -0.1589  0.0322  0.0890
    1W        W61773  14.756  10.926   1.547  0.1489  0.2181 -0.0867
    1W        W61774  20.063  24.029   1.070 -0.0737  0.4409  0.0980
    1W        W61775  27.108  28.399   1.763 -0.0114  0.1118  0.0345
    1W        W61776   3.801   5.592   8.350  0.0047 -0.1442 -0.0089
    1W        W61777   6.535   3.572   7.642  0.3914 -0.0894 -0.0402
    1W        W61778  23.321   9.374   7.165  0.0282  0.0275 -0.2647
    1W        W61779  27.312  16.498   2.665  0.0745  0.0346 -0.1655
    1W        W61780   5.556  23.925   0.346  0.1815  0.0740 -0.2563
    1W        W61781  11.267  21.723   6.761 -0.0311 -0.1298 -0.2158
    1W        W61782   6.071   8.782   0.490  0.1530 -0.1970 -0.1318
    1W        W61783  23.946  13.115   6.840 -0.1140  0.1265 -0.0714
    1W        W61784  23.336  13.177   6.919 -0.0537 -0.0161 -0.2151
    1W        W61785  15.737  28.109   3.789  0.0525  0.3016  0.0420
    1W        W61786  15.136  26.863   0.663 -0.3455 -0.0479 -0.5225
    1W        W61787   9.563  18.730   7.764  0.1495 -0.5694 -0.0770
    1W        W61788   5.146   8.425   9.152  0.1320  0.1128 -0.2511
    1W        W61789  18.303  21.164   0.057 -0.1761 -0.2241 -0.3109
    1W        W61790  27.821   7.967   2.852 -0.2587 -0.0832 -0.0019
    1W        W61791   7.919  22.980   6.905 -0.0566  0.0832  0.0180
    1W        W61792   4.639  23.680   7.475 -0.0931 -0.1627  0.3788
    1W        W61793  25.330   4.590   8.725  0.0437  0.2088  0.0444
    1W        W61794  10.604  20.159   0.094 -0.2295 -0.2901  0.2490
    1W        W61795   2.351  23.380   8.079 -0.1533  0.0476 -0.1021
    1W        W61796  23.628   7.656   1.668 -0.1548  0.0836 -0.3106
    1W        W61797  26.847   7.512   0.245  0.0767  0.0468  0.2582
    1W        W61798  10.413   9.494   0.256  0.1399  0.0170  0.0737
    1W        W61799   4.565   1.475   7.909 -0.2705  0.1983  0.1528
    1W        W61800  28.278   0.149   9.190 -0.3386 -0.1081 -0.1306
    1W        W61801   8.501  13.734   0.515 -0.2632  0.3280 -0.1371
    1W        W61802   3.871   8.699   2.785 -0.2507 -0.0538  0.0472
    1W        W61803   1.009  23.246   8.526 -0.1077 -0.2261 -0.0669
    1W        W61804   5.811  12.289   1.920 -0.0000 -0.0323  0.0692
    1W        W61805  16.303   4.261   2.855  0.0650  0.1182  0.2198
    1W        W61806  23.257  19.749   8.983 -0.1508 -0.0879  0.0133
    1W        W61807   6.835   0.018   0.870 -0.2367 -0.0372 -0.0022
    1W        W61808  16.899  25.211   0.320  0.0184 -0.0530 -0.0515
    1W        W61809  25.487  12.396   6.238  0.0475  0.0072 -0.2677
    1W        W61810   5.176   4.330   2.871 -0.0421 -0.0115  0.0492
    1W        W61811   9.006   4.558   8.245 -0.3649  0.0165  0.1095
    1W        W61812   4.464  11.458   8.056  0.3265 -0.0167  0.0137
    1W        W61813   1.838  14.611   7.199  0.1149  0.3721 -0.0251
    1W        W61814  14.200  20.952   0.173 -0.0525 -0.0695  0.1124
    1W        W61815   4.435   9.946   2.430  0.0038 -0.1349  0.2541
    1W        W61816  11.712   6.061   1.543  0.2715 -0.1114  0.1549
    1W        W61817  18.036  22.112   0.212 -0.1532  0.0636 -0.0794
    1W        W61818  27.969  26.884   6.758  0.1088  0.2158  0.0688
    1W        W61819  11.974  29.090   1.061  0.0166  0.1317  0.1352
    1W        W61820  13.065  18.269   8.467 -0.2777  0.2941 -0.0789
    1W        W61821  21.026   0.726   2.157 -0.2698  0.5461  0.1285
    1W        W61822   9.122  25.989   8.735  0.0318 -0.0709 -0.0521
    1W        W61823  18.574  15.561   8.514 -0.1275  0.0109  0.1315
    1W        W61824  15.867  20.281   7.686 -0.0162  0.0621 -0.4116
    1W        W61825   6.604   6.596   8.936 -0.0901  0.2195  0.0132
    1W        W61826   0.135  20.469   7.936 -0.2207 -0.0446  0.0156
    1W        W61827   9.955  28.231   1.537 -0.3350  0.1528 -0.3399
    1W        W61828  23.745   4.794   0.114 -0.0444  0.1502  0.0905
    1W        W61829  16.459  17.934   0.588  0.1635 -0.0132 -0.2554
    1W        W61830  10.140  18.344   0.956 -0.0915 -0.1783  0.2360
    1W        W61831  16.108  18.133   7.778  0.0409 -0.0628 -0.3897
    1W        W61832  22.950  27.840   9.232  0.2480  0.4269  0.2833
    1W        W61833  11.871  23.306   0.863  0.1253 -0.1364 -0.2707
    1W        W61834  29.820  12.564   7.550 -0.0799 -0.0486  0.1460
    1W        W61835  16.207   7.651   0.484  0.0584 -0.0991 -0.2461
    1W        W61836  28.201   3.958   0.744 -0.0975  0.0713  0.0289
    1W        W61837   6.494  28.012   7.438 -0.0344  0.0579 -0.2151
    1W        W61838  16.548  29.758   2.660 -0.1753  0.5551  0.1331
    1W        W61839  27.743  23.660   1.112  0.1228 -0.0486  0.0801
    1W        W61840   7.722   5.064   1.743 -0.2109 -0.1640  0.0081
    1W        W61841  28.316   3.650   9.144 -0.1325  0.0916  0.2377
    1W        W61842  11.823  10.067   0.172 -0.1827  0.0903 -0.1282
    1W        W61843   4.674   8.034   9.014 -0.3786  0.1320 -0.0975
    1W        W61844  18.204  29.797   2.154  0.2128  0.0722 -0.0072
    1W        W61845  11.113   0.304   1.510  0.2093 -0.2377  0.1447
    1W        W61846  20.983  20.386   1.734  0.0538  0.1606  0.1814
    1W        W61847   0.866  18.911   7.537 -0.0880  0.1686  0.2744
    1W        W61848  28.251   7.453   8.437  0.3123  0.0987  0.3797
    1W        W61849  10.304  17.357   2.076 -0.0228 -0.2937  0.2291
    1W        W61850  23.833  23.990   8.629  0.5233  0.2781 -0.1353
    1W        W61851  26.581   8.178   7.076 -0.0126 -0.2923  0.1796
    1W        W61852  22.464  26.546   8.998  0.0134 -0.3689 -0.0715
    1W        W61853   1.720   4.371   6.655 -0.1244  0.0632 -0.2855
    1W        W61854  19.392   5.720   0.354  0.1398 -0.2505 -0.3016
    1W        W61855  10.536  21.574   0.923  0.1252  0.1540  0.2305
    1W        W61856  23.662  15.976   7.525 -0.1579 -0.1677 -0.2804
    1W        W61857   1.723  21.872   0.895  0.1429  0.0112 -0.0862
    1W        W61858  27.807  27.936   3.278 -0.2765 -0.1718 -0.2455
    1W        W61859   7.051   6.920   0.959  0.0603  0.0961  0.0765
    1W        W61860   8.337  20.509   8.998 -0.1466  0.1003  0.2206
    1W        W61861  19.715  15.759   2.603  0.1398 -0.2732  0.2901
    1W        W61862   8.134   4.140   8.518 -0.0804  0.2501 -0.0823
    1W        W61863  25.536   1.945   1.569  0.0282 -0.0367 -0.1653
    1W        W61864   6.032  15.806   7.401  0.2771  0.0208 -0.0670
    1W        W61865  21.449  10.053   1.008 -0.0569 -0.3766  0.1563
    1W        W61866  26.517  14.223   5.499 -0.1646  0.3183  0.1340
    1W        W61867  11.896  25.963   8.879  0.0904 -0.0327  0.3089
    1W        W61868  19.159   3.190   8.349  0.0393 -0.3295 -0.0159
    1W        W61869  10.004   7.356   8.585 -0.0474  0.0660  0.2661
    1W        W61870   1.544  19.420   0.866 -0.0480  0.0380 -0.1330
    1W        W61871  10.751   1.105   1.661  0.1934  0.1000  0.1822
    1W        W61872  22.786  12.397   6.728 -0.0479 -0.0709  0.0691
    1W        W61873   6.236  26.800   1.747 -0.0806  0.0246 -0.0785
    1W        W61874   6.477  10.937   3.400 -0.0503  0.0064  0.1761
    1W        W61875   7.738  12.290   0.350  0.0404  0.0072 -0.0643
    1W        W61876  24.612  22.904   3.009 -0.0109  0.0296  0.2536
    1W        W61877  20.319  14.786   8.209 -0.1860  0.2295  0.0144
    1W        W61878  18.928   8.299   1.567 -0.0759 -0.1453 -0.0774
    1W        W61879  12.468   4.904   8.001  0.1208  0.0581 -0.2580
    1W        W61880  13.510  24.784   7.590  0.3292 -0.0046  0.1815
    1W        W61881  11.659  21.667   8.018  0.1020 -0.1878 -0.0403
    1W        W61882   3.537   5.997   6.718  0.1479  0.1639 -0.2783
    1W        W61883  26.790   7.090   6.412 -0.3006  0.3212  0.4239
    1W        W61884  22.760   6.249   7.443 -0.4242 -0.2622 -0.2368
    1W        W61885  19.452  25.894   0.806 -0.1747 -0.2040 -0.0924
    1W        W61886   1.190  19.061   6.296  0.2434 -0.0782  0.1506
    1W        W61887   0.336  14.872   9.297 -0.2076 -0.0710  0.0874
    1W        W61888  12.409   7.335   1.952  0.2936  0.1504  0.1309
    1W        W61889  23.427   9.936   0.914 -0.0119  0.0954  0.0588
    1W        W61890  11.021  22.580   6.725  0.2355 -0.0163 -0.2815
    1W        W61891   0.758  22.216   7.318  0.1798  0.0268 -0.2026
    1W        W61892  11.284  22.833   7.695 -0.0958 -0.1881 -0.0610
    1W        W61893  19.653   2.983   8.930 -0.2449  0.0692  0.0443
    1W        W61894   2.743   6.719   7.643  0.0367 -0.2989 -0.1123
    1W        W61895   5.162  10.546   7.736  0.0081  0.0711 -0.1049
    1W        W61896  11.543  22.214   0.005 -0.0113 -0.1080  0.4152
    1W        W61897  14.243  28.933   0.736  0.0238 -0.1524  0.1297
    1W        W61898  24.070   6.056   7.098 -0.0148  0.3242 -0.0992
    1W        W61899  22.722  11.362   1.300 -0.1197 -0.1824  0.1052
    1W        W61900   0.828  10.961   6.434 -0.0869 -0.0466  0.1160
    1W        W61901  12.339  26.781   7.593 -0.2914 -0.0623  0.0370
    1W        W61902   1.926   9.157   1.259 -0.1762  0.5327  0.0851
    1W        W61903   2.504   0.387   1.171  0.1426 -0.1222 -0.0455
    1W        W61904   6.543  23.598   1.832  0.1295 -0.0684 -0.0374
    1W        W61905   2.154  12.597   1.085  0.2893 -0.0637  0.0883
    1W        W61906   0.213   5.544   7.898 -0.0203 -0.2717 -0.0666
    1W        W61907  23.808  24.846   7.730  0.0903  0.0432 -0.1112
    1W        W61908  20.163  21.421   7.886 -0.1560 -0.0063  0.1643
    1W        W61909   0.053   5.738   6.516 -0.2476  0.2633  0.2237
    1W        W61910   2.476  20.251   0.106 -0.2946 -0.0572 -0.0935
    1W        W61911   8.255   7.574   9.015 -0.0844 -0.0075  0.2287
    1W        W61912  11.880  21.502   0.594 -0.1939 -0.1506  0.1373
    1W        W61913  23.875  20.590   2.112 -0.0624 -0.0738 -0.0216
    1W        W61914  22.319  12.400   6.901 -0.1364  0.2704 -0.0649
    1W        W61915  15.339   1.129   7.513 -0.0781 -0.0950  0.0812
    1W        W61916  14.143   2.615   0.143 -0.2288  0.1851 -0.1324
    1W        W61917  29.505   8.962   9.112 -0.0769  0.1125  0.1572
    1W        W61918  21.317  14.380   9.128 -0.1097 -0.3954  0.1066
    1W        W61919  20.752  28.522   3.006 -0.0626  0.0448  0.0404
    1W        W61920   8.306   3.757   8.810  0.3524  0.1030 -0.1338
    1W        W61921  21.669   9.892   8.864 -0.0788  0.0598 -0.0191
    1W        W61922  17.018  15.529   6.471  0.0370 -0.0304 -0.1444
    1W        W61923   0.303  15.313   9.068  0.2332 -0.0295 -0.1756
    1W        W61924  17.839   8.612   0.812  0.2418  0.0884  0.1417
    1W        W61925   5.805   5.787   7.585 -0.0319  0.2957  0.0805
    1W        W61926   4.834  23.816   8.371 -0.2932 -0.0244  0.1338
    1W        W61927  18.654  27.495   7.772 -0.0685 -0.2455 -0.0826
    1W        W61928  22.133  29.680   3.320  0.0581  0.0774 -0.1769
    1W        W61929  14.666  21.529   0.792  0.1915 -0.0490  0.1773
    1W        W61930  29.249   1.875   3.373 -0.0193 -0.0055 -0.2558
    1W        W61931  18.300  12.688   1.668  0.0918 -0.0141 -0.0035
    1W        W61932   1.800  13.459   1.760  0.1199 -0.2499 -0.2888
    1W        W61933   8.765  21.474   1.811 -0.2283  0.0580  0.1288
    1W        W61934   2.803  28.463   0.477 -0.1355 -0.0067 -0.1204
    1W        W61935   4.999   8.186   6.610  0.0630 -0.0797 -0.3342
    1W        W61936   9.374  24.104   9.291  0.0142  0.0298 -0.1016
    1W        W61937  23.953   0.732   7.376 -0.2432  0.2664  0.0335
    1W        W61938   3.445   8.162   0.993  0.0133 -0.0233 -0.2164
    1W        W61939  25.015  29.091   7.588  0.2339 -0.2495 -0.3339
    1W        W61940  24.967  22.811   0.861 -0.2164 -0.0311 -0.1310
    1W        W61941  13.981  28.722   2.922 -0.0570  0.2414 -0.1291
    1W        W61942  28.814  27.702   1.459 -0.0006 -0.4322 -0.0676
    1W        W61943   2.250  25.655   1.927 -0.0989 -0.0895 -0.0656
    1W        W61944  21.103   5.152   7.037  0.1063  0.1784 -0.0164
    1W        W61945  19.532  16.198   7.082  0.0046 -0.3238  0.0373
    1W        W61946  15.872  21.073   7.298  0.1250  0.1141  0.0078
    1W        W61947   4.890  18.538   6.856 -0.2390  0.2794  0.0285
    1W        W61948  20.060  20.383   2.104 -0.1854 -0.1053 -0.0364
    1W        W61949  24.215  17.218   7.496  0.0052  0.0016  0.1632
    1W        W61950   4.119  15.317   8.411 -0.0243  0.0111  0.0505
    1W        W61951   1.961   4.466   3.160  0.2156 -0.0462 -0.1659
    1W        W61952  28.532  15.587   6.573 -0.0346  0.0286  0.2070
    1W        W61953  21.036  11.062   1.747 -0.1488  0.1476 -0.0559
    1W        W61954  11.622  14.211   9.423  0.0634  0.2147  0.2269
    1W        W61955   4.929   0.220   3.665 -0.3224 -0.0802  0.0039
    1W        W61956   0.815  20.856   6.305  0.0977  0.0771 -0.4593
    1W        W61957   4.582  24.246   8.557  0.1000 -0.1677 -0.0733
    1W        W61958   3.100   4.857   7.040  0.2033  0.1246  0.4071
    1W        W61959  14.511  16.961   7.913 -0.1531 -0.0089 -0.0390
    1W        W61960   9.792  24.409   7.625  0.1451  0.0354  0.0234
    1W        W61961   7.753  13.420   8.562 -0.3066  0.0838  0.1288
    1W        W61962   0.726  28.438   9.303 -0.0665 -0.1170 -0.0512
    1W        W61963   0.452  10.984   8.302  0.1458 -0.0628  0.0678
    1W        W61964   5.038  17.154   8.847 -0.1287 -0.2520 -0.1220
    1W        W61965   7.054  23.866   0.952  0.0753  0.3570  0.1061
    1W        W61966   5.022  15.948   6.167 -0.2337 -0.0036  0.2292
    1W        W61967   9.687  13.406   9.339  0.1146  0.1527  0.1125
    1W        W61968  25.231  18.831   7.616  0.0967 -0.0156 -0.2035
    1W        W61969  17.020  19.775   8.811  0.0127 -0.3368  0.1218
    1W        W61970  27.197  27.898   7.336  0.1173  0.0497 -0.1131
    1W        W61971  19.854   5.309   0.380 -0.0388 -0.1157 -0.1202
    1W        W61972  28.422   3.375   8.647  0.1123 -0.0258  0.0257
    1W        W61973   0.710   3.263   2.766 -0.3403 -0.0257  0.2556
    1W        W61974  13.871  28.580   8.380  0.0187 -0.3336 -0.4255
    1W        W61975   5.105  24.510   2.612  0.1537  0.3929 -0.0086
    1W        W61976  16.081  10.471   0.704  0.1494 -0.1844 -0.1503
    1W        W61977  27.611   3.877   9.431  0.1243 -0.1727  0.0543
    1W        W61978  17.539  25.119   8.480  0.1372  0.0603  0.0321
    1W        W61979   4.151  27.375   7.118  0.0475  0.2445  0.1779
    1W        W61980   6.464  27.833   0.205 -0.0599  0.0089  0.0324
    1W        W61981  27.886   5.181   1.789  0.0811 -0.0621  0.0890
    1W        W61982   5.102  28.961   6.724 -0.0993 -0.1390 -0.3563
    1W        W61983  18.023   9.868   1.870 -0.4336 -0.0537 -0.3071
    1W        W61984  24.451  16.190   9.294  0.1713  0.1754 -0.4698
    1W        W61985  20.118   1.208   8.929 -0.0648 -0.0705 -0.1982
    1W        W61986  19.821   0.645   1.306  0.1698 -0.0383 -0.2038
    1W        W61987  23.064  22.891   0.773 -0.1346  0.2007 -0.1519
    1W        W61988  16.960   5.798   0.227  0.1359  0.0590 -0.0561
    1W        W61989   0.724   9.287   1.932  0.1243 -0.2398 -0.0773
    1W        W61990  25.589  14.872   6.478  0.1597  0.0673 -0.2251
    1W        W61991  26.478  19.856   6.190  0.1729  0.1336 -0.2561
    1W        W61992  25.440  15.008   7.388  0.2218 -0.2119  0.1456
    1W        W61993   4.519  16.149   1.176 -0.2392  0.1685  0.2066
    1W        W61994  28.221   0.890   1.477  0.0069  0.1020 -0.2846
    1W        W61995   5.145  20.695   5.164 -0.1604 -0.0342 -0.1343
    1W        W61996  22.214   1.091   7.511  0.0394  0.2297  0.1785
    1W        W61997  22.565  27.097   8.965 -0.1240 -0.1150 -0.4290
    1W        W61998  27.363   1.047   0.031 -0.1090 -0.0628 -0.2603
    1W        W61999  16.950  26.590   8.645  0.1072 -0.0281 -0.2042
    1W        W62000   5.507   4.043   2.570  0.1024 -0.2779  0.2376
    1W        W62001  20.445  25.598   8.903  0.0849 -0.2826  0.1036
    1W        W62002   4.767   4.958   2.392 -0.0013 -0.2022 -0.1934
    1W        W62003  28.840  23.078   0.834 -0.2175  0.0174  0.0939
    1W        W62004   6.310  17.959   7.006  0.0001 -0.2750  0.0556
    1W        W62005  19.128  14.042   7.064  0.0851 -0.2601 -0.0610
    1W        W62006   9.418  13.621   0.685  0.0630  0.1415 -0.0420
    1W        W62007  22.405  11.497   1.665  0.2813 -0.0716  0.2477
    1W        W62008   8.193  22.759   5.985  0.2267  0.0507  0.2022
    1W        W62009  29.307  18.439   6.930  0.1030  0.0401  0.0443
    1W        W62010  17.708  24.087   1.649 -0.3755 -0.1945 -0.2531
    1W        W62011   2.454  20.705   8.343  0.1598 -0.2393  0.0952
    1W        W62012  28.748  29.715   9.224  0.0522  0.2768  0.2209
    1W        W62013   2.371  19.085   1.158 -0.1047  0.2029  0.1308
    1W        W62014  12.536  15.529   2.294 -0.2563  0.0321  0.0061
    1W        W62015  14.905   1.511   2.524 -0.0710 -0.0101  0.0354
    1W        W62016   2.973   1.059   2.088  0.0301 -0.0453 -0.0571
    1W        W62017   9.000   6.301   3.177  0.0976  0.2686  0.1055
    1W        W62018  17.967  29.230   8.780  0.2540  0.0785 -0.2134
    1W        W62019   7.957   0.087   7.791 -0.0192 -0.2904 -0.0898
    1W        W62020   7.483  28.386   8.943 -0.2924  0.1633  0.1276
    1W        W62021   9.544   5.892   7.337  0.0933  0.0089  0.2063
    1W        W62022   5.953  13.513   7.031  0.0065 -0.1230  0.1424
    1W        W62023  21.878   0.279   7.430  0.2456  0.1409 -0.0411
    1W        W62024   3.287   5.134   0.475  0.0345 -0.1485 -0.1972
    1W        W62025  13.272   1.647   7.561  0.0990  0.1326  0.1688
    1W        W62026  11.457  19.689   7.828  0.0308  0.0590  0.0719
    1W        W62027  29.751  26.137   9.033  0.0118 -0.2332  0.1253
    1W        W62028  29.534   7.012   7.931  0.1648 -0.0058  0.1120
    1W        W62029   7.993  10.310   2.373  0.0175  0.0284  0.0717
    1W        W62030  14.194   6.792   7.745  0.4399  0.0054  0.2230
    1W        W62031   8.441  18.701   8.048  0.3006 -0.1515  0.0419
    1W        W62032   5.958  18.604   8.605 -0.0329 -0.1715  0.2039
    1W        W62033  13.867  12.130   2.680  0.1255 -0.0359 -0.1378
    1W        W62034  20.243  15.118   7.791  0.4292  0.1676  0.3291
    1W        W62035  25.727  27.491   2.534 -0.1365  0.3313 -0.0342
    1W        W62036  12.296  13.950   0.672  0.0402  0.2110 -0.1767
    1W        W62037   2.439  27.742   6.281  0.2236  0.2571 -0.1650
    1W        W62038   2.428  28.931   7.864  0.0569  0.1254  0.1330
    1W        W62039  14.446  28.572   1.257  0.0368 -0.1152  0.0266
    1W        W62040   5.947  22.376   9.095 -0.0003 -0.1508 -0.0268
    1W        W62041  15.998   0.359   7.926 -0.3206 -0.2357 -0.0705
    1W        W62042  15.512  17.066   7.725  0.2880 -0.5060  0.0567
    1W        W62043   8.905  29.683   1.981 -0.2485 -0.0174  0.0731
    1W        W62044   8.982  28.734   2.665  0.0893 -0.1272  0.1054
    1W        W62045  18.222   6.024   7.361  0.1645  0.0592 -0.2759
    1W        W62046   7.129  21.061   7.767 -0.0415 -0.1717 -0.0431
    1W        W62047   4.534  28.300   2.712 -0.0385  0.0479  0.1282
    1W        W62048  24.546   5.009   8.453 -0.0568  0.3373 -0.0202
    1W        W62049  15.408  12.524   1.775  0.1818 -0.0588 -0.1601
    1W        W62050   1.256  19.122   0.174 -0.1128 -0.1169 -0.1556
    1W        W62051  25.991  12.306   6.278 -0.1252  0.1350  0.1674
    1W        W62052  28.981   0.008   3.148 -0.0152  0.2098 -0.0941
    1W        W62053   6.560  11.754   7.285 -0.3248 -0.2651 -0.0506
    1W        W62054  17.010  25.127   2.395  0.1028  0.2699  0.0102
    1W        W62055  22.525  14.382   7.208  0.1052  0.0364 -0.1521
    1W        W62056   4.661  19.337   1.991  0.3689 -0.2858  0.2686
    1W        W62057  13.339  12.209   7.677 -0.0020 -0.2476 -0.2197
    1W        W62058   3.500  14.478   0.497 -0.0616  0.3237  0.2520
    1W        W62059   7.148  28.222   8.581  0.0883 -0.0195  0.2572
    1W        W62060   8.050   2.123   8.599  0.2629  0.0866  0.0535
    1W        W62061   0.233  24.378   0.912 -0.2945  0.1924  0.1904
    1W        W62062   2.777  23.389   6.788 -0.4333  0.1344 -0.1784
    1W        W62063  21.126  15.039   1.153 -0.2507  0.0323  0.0387
    1W        W62064  15.707  23.592   0.191 -0.0020 -0.3724 -0.0644
    1W        W62065   1.208   4.427   8.123  0.0597 -0.3784  0.3565
    1W        W62066  16.990  21.105   2.611  0.1799 -0.1493  0.0538
    1W        W62067  21.186  23.525   8.397  0.2104  0.0157 -0.0992
    1W        W62068  16.933   3.848   0.056  0.0404  0.0906 -0.2044
    1W        W62069  29.180  19.401   0.863 -0.0974 -0.0408 -0.0967
    1W        W62070  19.908  26.726   8.903 -0.1911  0.0468  0.3166
    1W        W62071   8.268  24.080   6.212  0.0508  0.3418  0.0654
    1W        W62072  10.969  12.601   6.762 -0.1301  0.0382  0.1270
    1W        W62073   3.487  20.486   6.850  0.0180  0.0669 -0.0719
    1W        W62074  20.438  14.484   1.628  0.1978  0.1662 -0.1835
    1W        W62075  11.275  19.006   1.264  0.2189  0.2013  0.2939
    1W        W62076   8.222  18.960   1.657 -0.1845 -0.4091 -0.2918
    1W        W62077   5.149  24.043   2.118  0.1015 -0.2732  0.0255
    1W        W62078  10.048  23.782   5.973 -0.1852  0.0845  0.3417
    1W        W62079   2.797  24.225   5.773  0.2610  0.0367  0.0062
    1W        W62080  10.720  22.214   0.819  0.2595  0.0424 -0.0532
    1W        W62081   8.177   1.470   2.682  0.0274  0.1286  0.4290
    1W        W62082   8.969   5.487   0.692 -0.3702  0.1135  0.1516
    1W        W62083  19.557  12.629   7.437 -0.4642 -0.2310  0.2472
    1W        W62084  26.851  27.246   6.726 -0.2407  0.1057 -0.1876
    1W        W62085  19.341  17.632   8.157 -0.1628  0.1453  0.2887
    1W        W62086  28.269  13.382   6.398  0.0685 -0.1269 -0.0620
    1W        W62087  29.485   7.469   1.791 -0.0152 -0.0144 -0.0831
    1W        W62088  17.340  29.522   2.911 -0.1029 -0.0680  0.0255
    1W        W62089  29.575   4.490   1.559  0.0117 -0.0647  0.1766
    1W        W62090  14.580  14.326   1.044 -0.0675  0.0308  0.0309
    1W        W62091  10.650  25.551   7.445 -0.0133  0.1043 -0.0433
    1W        W62092  14.563   4.855   9.399  0.1084 -0.1888 -0.0639
    1W        W62093  20.280   6.310   2.047  0.2085  0.0257 -0.0545
    1W        W62094   1.787   1.850   3.348  0.0814  0.1426 -0.1247
    1W        W62095  17.065  28.904   0.979 -0.0870  0.1537  0.0250
    1W        W62096  18.505   7.456   0.871 -0.0378  0.0451 -0.3874
    1W        W62097  26.965   9.336   8.853 -0.1842  0.1548 -0.0325
    1W        W62098  29.467  18.444   0.544  0.2103  0.1215  0.1627
    1W        W62099  15.322   1.056   2.590 -0.0413 -0.3804  0.0705
    1W        W62100  25.686  16.935   0.049 -0.2427  0.0441  0.0179
    1W        W62101  15.141  27.263   8.494 -0.2520  0.0313  0.1606
    1W        W62102  18.404   0.403   9.147  0.0702 -0.6405  0.1444
    1W        W62103  24.137   1.984   1.941 -0.2592  0.2594  0.0519
    1W        W62104  26.586   5.566   1.809 -0.0995  0.1625 -0.2607
    1W        W62105   9.264   1.939   8.640  0.1964  0.1167 -0.1177
    1W        W62106  28.835   8.214   2.941  0.0774 -0.2082  0.2743
    1W        W62107  24.136   6.660   8.916  0.0926  0.1483 -0.1751
    1W        W62108   2.976  27.190   1.781 -0.0143  0.2145  0.2029
    1W        W62109  17.532  17.472   1.949 -0.0108 -0.0373  0.1524
    1W        W62110  15.626   3.457   0.643  0.2368 -0.0298  0.1327
    1W        W62111  14.120  24.561   9.327  0.0113 -0.0741 -0.0527
    1W        W62112  20.887  27.682   2.359 -0.0606 -0.0396  0.1277
    1W        W62113  14.133  23.539   7.174 -0.0709 -0.0625 -0.3658
    1W        W62114  29.087   7.598   6.738  0.0308 -0.1656 -0.1942
    1W        W62115  17.332   5.754   8.919  0.1140  0.0116  0.2504
    1W        W62116  20.087   0.841   0.450 -0.3639  0.0504 -0.0762
    1W        W62117  13.024  20.345   6.970  0.1687 -0.1849  0.1762
    1W        W62118  23.369  12.102   1.362 -0.0576  0.0599 -0.0506
    1W        W62119  13.905   4.370   0.879 -0.2637  0.1769  0.1711
    1W        W62120  28.341  14.897   0.736 -0.0837 -0.2787 -0.3045
    1W        W62121  19.070   2.127   9.064 -0.2393  0.2684  0.1622
    1W        W62122  14.527   7.982   0.593  0.1132 -0.1868 -0.1507
    1W        W62123   2.867  29.636   7.333  0.0903 -0.0218 -0.0229
    1W        W62124  23.092  28.437   1.357  0.2022  0.0717 -0.1627
    1W        W62125  23.620  19.830   8.691  0.1380  0.0831 -0.0282
    1W        W62126  19.757  21.346   8.129  0.0780  0.1901  0.2074
    1W        W62127   0.804  19.774   8.131  0.1799  0.2143 -0.0009
    1W        W62128  12.749   9.411   2.289  0.1194  0.1537  0.3613
    1W        W62129  19.281  18.420   1.747  0.1040 -0.1708  0.5040
    1W        W62130  26.169  18.123   7.327  0.2660  0.0119  0.1570
    1W        W62131   1.630  15.890   6.959  0.4174  0.0858 -0.1501
    1W        W62132  28.519  12.199   1.298  0.0225 -0.1644 -0.1703
    1W        W62133  11.940  20.999   0.697 -0.3299 -0.1269 -0.0084
    1W        W62134  20.629  10.259   0.556  0.2509 -0.1360 -0.3605
    1W        W62135  18.650  10.321   7.251 -0.0896  0.1627  0.2733
    1W        W62136  17.966   9.504   0.483  0.0784 -0.0130  0.1037
    1W        W62137   2.017  13.926   2.071 -0.0478  0.4372  0.0861
    1W        W62138  20.212  27.930   0.181  0.3854 -0.1263 -0.3053
    1W        W62139   0.736  10.891   7.005 -0.0905  0.2499  0.2769
    1W        W62140   6.856  27.688   2.370 -0.3062 -0.0095 -0.1902
    1W        W62141   2.545   3.065   2.494  0.3283  0.0145 -0.3447
    1W        W62142  20.130  20.048   7.897 -0.0056  0.0613 -0.4457
    1W        W62143  15.118  13.939   6.987  0.1739  0.1243 -0.4658
    1W        W62144   3.863   5.246   7.042 -0.0618 -0.3212  0.1603
    1W        W62145   6.943  22.739   0.923 -0.3080 -0.2465 -0.1720
    1W        W62146  15.529  22.334   0.560 -0.1325 -0.2339  0.2155
    1W        W62147  21.863  23.673   0.522 -0.1448  0.0159 -0.1071
    1W        W62148  23.549   1.465   7.145 -0.1574  0.3171 -0.3256
    1W        W62149   3.734  23.752   7.618  0.0185 -0.0598  0.0013
    1W        W62150  24.126   9.914   0.484 -0.2375  0.1315  0.0229
    1W        W62151  21.389  19.465   8.288  0.3265  0.1595 -0.1390
    1W        W62152  11.183  15.883   7.641 -0.0166  0.1243 -0.1819
    1W        W62153  22.603  15.833   8.389 -0.0823 -0.1345 -0.1702
    1W        W62154  14.207  29.695   1.632 -0.0901 -0.3088 -0.0923
    1W        W62155  11.360  19.999   8.258 -0.2039 -0.0092  0.0487
    1W        W62156  11.181  10.377   2.314  0.1400  0.2006 -0.0832
    1W        W62157   2.619  10.689   1.281 -0.0430  0.3226  0.0778
    1W        W62158   7.760  22.685   0.370  0.2372 -0.0062  0.1024
    1W        W62159  21.447  25.028   8.542 -0.0819  0.0289  0.0109
    1W        W62160  14.617  19.264   7.368 -0.2575  0.1679 -0.0319
    1W        W62161   7.930  29.201   8.909  0.1232  0.1823  0.0692
    1W        W62162  17.982   1.018   8.537 -0.0105  0.0881  0.0062
    1W        W62163  27.618  23.156   8.168 -0.1894 -0.4391  0.2093
    1W        W62164   1.598  13.350   8.798 -0.2046  0.1258 -0.3218
    1W        W62165  10.426  19.644   7.269  0.1563  0.5048 -0.1881
    1W        W62166  21.357   2.835   2.878 -0.3480  0.2272 -0.0595
    1W        W62167  29.664  11.168   6.120 -0.0248 -0.0415 -0.2317
    1W        W62168  23.073  21.846   7.210  0.1024  0.0630 -0.2454
    1W        W62169   5.292  14.423   7.345  0.2623 -0.1678  0.2079
    1W        W62170  16.614   8.012   8.190 -0.3343 -0.2699  0.2328
    1W        W62171  29.177   8.491   1.540  0.0369  0.0579 -0.1385
    1W        W62172  10.264   3.805   1.284  0.0058 -0.0546 -0.0330
    1W        W62173  26.542  23.175   7.348  0.2567  0.1593 -0.0182
    1W        W62174   1.492   1.696   9.082 -0.2255 -0.2537  0.1158
    1W        W62175   2.071  19.353   9.216  0.1150 -0.0075 -0.0445
    1W        W62176   8.873  18.009   7.357 -0.1186  0.0258 -0.1775
    1W        W62177  23.209  11.594   1.270 -0.1599  0.2718 -0.1305
    1W        W62178   9.693  14.593   7.527  0.1177 -0.1493  0.2968
    1W        W62179   2.774  16.070   6.410  0.0817 -0.2070 -0.1921
    1W        W62180  26.202   8.392   9.353 -0.0456  0.2800  0.2124
    1W        W62181  28.999  21.815   1.767 -0.0276 -0.0743 -0.1731
    1W        W62182   2.803  22.729   0.821 -0.0182 -0.0768  0.1105
    1W        W62183  26.524   1.815   9.085  0.0643  0.0246  0.0239
    1W        W62184  22.501  25.391   8.516  0.2892  0.0757 -0.3291
    1W        W62185   7.048   2.408   9.377  0.0846 -0.1605 -0.0276
    1W        W62186  13.641  26.224   1.176 -0.0977  0.0894  0.5319
    1W        W62187  22.788   0.794   9.339  0.0187 -0.0775 -0.1274
    1W        W62188  13.208  25.929   1.180 -0.2226  0.3190 -0.3104
    1W        W62189  28.509   0.157   3.161  0.1830  0.0966 -0.2524
    1W        W62190  12.316  18.707   7.238  0.1000  0.2293 -0.0504
    1W        W62191   7.570  23.701   7.636  0.0095  0.0178  0.0173
    1W        W62192   5.564  28.417   1.274 -0.0570  0.1873 -0.1700
    1W        W62193  21.124   1.747   7.276 -0.3264 -0.1347 -0.3387
    1W        W62194   7.436  14.552   2.248 -0.0971  0.4126 -0.1044
    1W        W62195   8.367   1.249   1.914  0.1407 -0.1552  0.1056
    1W        W62196  24.029   5.197   1.585  0.1312  0.0178  0.1707
    1W        W62197  11.487  20.522   1.096 -0.0045 -0.2398 -0.2242
    1W        W62198   0.850  16.206   0.447 -0.3919  0.0369  0.2170
    1W        W62199  15.838   4.140   7.358  0.1051 -0.1884  0.2558
    1W        W62200   2.209   6.792   7.987  0.0443  0.0084 -0.1060
    1W        W62201  16.535   4.131   0.709 -0.1797  0.0962 -0.2022
    1W        W62202  15.837  11.067   8.370 -0.1782 -0.2326  0.0387
    1W        W62203  27.603  17.886   7.404 -0.1400 -0.1705  0.1116
    1W        W62204  26.242  14.077   8.032  0.0328  0.0301 -0.0099
    1W        W62205   0.963   0.170   8.659 -0.0830  0.1241  0.1796
    1W        W62206   0.521  19.099   8.121 -0.0159 -0.0609  0.0526
    1W        W62207  29.321   9.815   6.979 -0.0251 -0.1681  0.0049
    1W        W62208  18.936   0.272   1.474  0.0978 -0.2274 -0.1934
    1W        W62209   2.981  11.481   9.174 -0.1520 -0.1678  0.1696
    1W        W62210  10.540   8.833   8.088  0.2927  0.2891 -0.1107
    1W        W62211   2.237   9.614   7.904 -0.2095 -0.0404  0.1649
    1W        W62212   8.513  20.521   8.527 -0.0319  0.1853  0.0594
    1W        W62213  14.121   3.106   0.219 -0.1157 -0.0869  0.0731
    1W        W62214  28.741   9.464   1.247 -0.0535 -0.0084 -0.0920
    1W        W62215  19.060   3.584   0.671 -0.0130  0.3567  0.0956
    1W        W62216  16.036  11.992   7.908 -0.2578 -0.3268 -0.0712
    1W        W62217   2.850  12.217   8.963 -0.2832 -0.2642  0.1831
    1W        W62218  27.359   4.244   3.360 -0.2220 -0.2249  0.1649
    1W        W62219  19.168   4.569   1.129 -0.0262  0.1257 -0.2088
    1W        W62220   8.971   0.343   2.647  0.0429 -0.1845 -0.3945
    1W        W62221  13.307   1.596   1.231 -0.0138  0.3235  0.0880
    1W        W62222   3.551  14.512   1.985  0.2930  0.3241 -0.0349
    1W        W62223  17.444  19.688   7.114 -0.3029  0.0759 -0.0549
    1W        W62224   7.597   9.343   0.624 -0.0233 -0.4570  0.1381
    1W        W62225   4.366  10.465   2.288  0.1335 -0.0342 -0.0648
    1W        W62226   1.574  25.460   0.267 -0.2559 -0.4642  0.2781
    1W        W62227   7.037  13.467   9.337  0.1833  0.4987 -0.0957
    1W        W62228  24.241   6.486   6.996 -0.2981  0.0990  0.0203
    1W        W62229   8.178  19.187   6.249  0.0589  0.1180 -0.2046
    1W        W62230  20.808   1.971   8.549  0.1094 -0.1426  0.1529
    1W        W62231  24.688  21.866   2.579 -0.1817  0.1268  0.1465
    1W        W62232  14.537   3.498   8.488  0.0539 -0.0067  0.0748
    1W        W62233  14.997  24.383   3.208 -0.1141 -0.0400 -0.1101
    1W        W62234  29.539  12.474   0.511 -0.1753 -0.3534  0.1039
    1W        W62235  28.584  29.244   8.936  0.0684  0.1315  0.2165
    1W        W62236   7.930   7.703   1.802  0.0442  0.2880 -0.1435
    1W        W62237  15.021  11.165   7.781  0.1141  0.1740  0.1735
    1W        W62238   4.349   8.680   8.618 -0.0393  0.3560 -0.1234
    1W        W62239  20.395   4.173   6.997  0.1088 -0.0244 -0.0254
    1W        W62240  21.379  15.647   6.408 -0.0791  0.2360  0.2055
    1W        W62241  15.945   6.294   1.466  0.1332 -0.0624 -0.0674
    1W        W62242  24.517  22.659   9.177 -0.0414 -0.0821  0.1639
    1W        W62243   9.584  27.517   2.009  0.2592  0.0988  0.0688
    1W        W62244  23.442  24.540   8.700 -0.2381  0.3866 -0.0134
    1W        W62245   9.187  15.998   0.313  0.0736  0.0089  0.1016
    1W        W62246  19.172  20.273   8.815 -0.0665 -0.4147  0.0025
    1W        W62247  10.819   4.647   3.789  0.0646 -0.1183  0.0307
    1W        W62248  21.380   8.831   0.087 -0.0724  0.0325  0.3298
    1W        W62249   6.310  19.991   6.920  0.1082 -0.0483 -0.0706
    1W        W62250   6.970  17.913   6.657 -0.0117  0.2281 -0.3375
    1W        W62251   3.857  21.914   0.416  0.0368  0.2409  0.0735
    1W        W62252  27.944  25.172   2.525  0.1400 -0.1693 -0.2167
    1W        W62253  13.443  24.025   8.904 -0.0466  0.1295 -0.1300
    1W        W62254  18.376  23.696   6.990 -0.1153 -0.3136  0.0846
    1W        W62255  15.319   2.297   0.737  0.0309 -0.1845  0.1496
    1W        W62256  13.575  11.618   0.151  0.0392 -0.1612 -0.3854
    1W        W62257  11.274  14.457   9.119 -0.2761 -0.0053  0.3560
    1W        W62258  12.499   3.747   7.315  0.2814 -0.0927 -0.1175
    1W        W62259  19.328  22.755   2.088 -0.0438 -0.0174  0.0425
    1W        W62260  27.353   6.455   1.826 -0.1645 -0.2364 -0.0157
    1W        W62261  28.034   4.251   7.549  0.1133 -0.1870 -0.2491
    1W        W62262   3.886  14.765   7.474  0.1278  0.3203  0.1085
    1W        W62263  21.981  26.395   1.477 -0.1109  0.1110 -0.0297
    1W        W62264  20.476  15.436   1.636  0.1249  0.2148  0.3474
    1W        W62265  10.633   3.548   3.295 -0.1979  0.2561 -0.3303
    1W        W62266   4.873  24.130   7.369  0.1262  0.1373  0.1379
    1W        W62267  13.578  13.934   8.585 -0.0037 -0.1576 -0.0135
    1W        W62268  14.093   2.632   2.933  0.0271  0.0189  0.0618
    1W        W62269  17.288  27.593   1.450  0.0951 -0.3085  0.1434
    1W        W62270  19.771  21.133   7.668  0.4205 -0.2349 -0.2352
    1W        W62271  25.108  19.643   0.505 -0.1169  0.0889  0.0075
    1W        W62272   9.181  18.324   7.619 -0.0373  0.3382 -0.2270
    1W        W62273   9.227  25.006   6.512 -0.1262  0.0878  0.0682
    1W        W62274  23.376  12.334   6.673  0.2002  0.0334  0.1800
    1W        W62275  19.659  20.141   0.258  0.2872 -0.0606  0.3310
    1W        W62276  18.511  24.434   7.602  0.0302  0.3325 -0.0043
    1W        W62277  15.387   8.076   2.087  0.1652  0.2194  0.1345
    1W        W62278  22.057  14.296   8.101 -0.0323  0.0646 -0.0326
    1W        W62279  27.993   1.999   8.813  0.4182  0.0734 -0.0515
    1W        W62280  16.646  19.090   8.817 -0.0288 -0.2207  0.1747
    1W        W62281   3.790   6.637   9.393  0.1472  0.0251 -0.0335
    1W        W62282  19.724  22.745   2.425 -0.0900 -0.3290 -0.2792
    1W        W62283  22.684  13.534   8.344  0.2096 -0.3013 -0.1153
    1W        W62284  28.077  20.816   9.429 -0.1206  0.2331 -0.3198
    1W        W62285   9.529   8.734   2.968 -0.0999 -0.1323  0.2193
    1W        W62286  18.160  26.789   8.072  0.0794 -0.0376 -0.1303
    1W        W62287   1.812  25.331   5.997 -0.1017  0.0191  0.1294
    1W        W62288   4.480   6.973   3.096 -0.0249  0.0498  0.0282
    1W        W62289  27.226  11.573   5.808 -0.1267  0.0142  0.5069
    1W        W62290  17.184  23.478   8.592 -0.2915 -0.1470  0.1038
    1W        W62291  22.043   5.713   7.197 -0.2026  0.1551  0.1933
    1W        W62292   1.324   5.134   3.191 -0.2730  0.0736  0.2560
    1W        W62293  28.604   7.541   2.630 -0.1659  0.0019  0.0858
    1W        W62294   0.725  23.357   7.821 -0.2363 -0.0389  0.0654
    1W        W62295   0.086  12.929   6.698  0.4017 -0.2170  0.0060
    1W        W62296  12.003  10.065   0.904 -0.0285 -0.1251 -0.2708
    1W        W62297   6.299   5.276   8.528  0.0429 -0.1108 -0.0009
    1W        W62298  20.889   3.679   8.213  0.1202  0.2708  0.1791
    1W        W62299   3.091  24.596   8.941  0.2477 -0.2263 -0.3363
    1W        W62300  22.008   8.336   7.929 -0.1202  0.2305 -0.2508
    1W        W62301  16.349  28.978   3.091  0.0523 -0.1385 -0.0745
    1W        W62302   2.976  20.922   1.730 -0.2330  0.0917 -0.0976
    1W        W62303  18.839  14.011   7.654  0.1040 -0.0565  0.3201
    1W        W62304  19.701   2.957   7.315  0.3221  0.1063 -0.3720
    1W        W62305  14.090   9.132   2.671  0.2108 -0.1284  0.0550
    1W        W62306   3.136  16.848   0.445 -0.1907 -0.2088 -0.4333
    1W        W62307   0.989   6.055   6.901 -0.3020  0.1161  0.1903
    1W        W62308  20.869  28.384   1.370  0.0107 -0.2463  0.0873
    1W        W62309  12.444  18.529   8.832  0.3085  0.1005  0.0693
    1W        W62310   1.283   1.236   7.442  0.2141 -0.0649 -0.3121
    1W        W62311  28.784  13.552   7.883  0.1691 -0.0224  0.2055
    1W        W62312   0.535   5.288   0.875 -0.1487  0.2001 -0.2240
    1W        W62313  26.390  28.326   9.203 -0.0465 -0.0135  0.3041
    1W        W62314  19.805  21.647   7.546 -0.0616 -0.0959  0.4923
    1W        W62315   5.057  19.663   7.065 -0.3536 -0.0617  0.2048
    1W        W62316   4.309   9.444   9.320 -0.1628 -0.4192 -0.1634
    1W        W62317   1.380   6.914   7.144  0.0230 -0.0857  0.1873
    1W        W62318  11.079  24.109   5.904 -0.0397 -0.2795 -0.1558
    1W        W62319   7.174   9.948   2.944  0.1217  0.1102  0.1598
    1W        W62320   8.894   6.970   7.531  0.0172  0.0220 -0.1918
    1W        W62321   9.281   1.434   3.478 -0.0482 -0.0286  0.1754
    1W        W62322   3.655  16.288   6.533  0.0469 -0.0295 -0.0705
    1W        W62323   6.216   6.981   1.152  0.2005 -0.1950 -0.0666
    1W        W62324  21.687  26.391   8.867  0.0436 -0.0636 -0.2478
    1W        W62325   1.455  13.162   1.472 -0.0432  0.0767  0.0841
    1W        W62326  22.061   8.435   8.789  0.1515  0.2104 -0.1632
    1W        W62327  21.457  20.285   2.662 -0.0032  0.1242 -0.1076
    1W        W62328  13.282  28.737   0.508 -0.0718 -0.0709 -0.0876
    1W        W62329  14.327  15.766   0.488  0.1067  0.0041 -0.0547
    1W        W62330  23.455   8.809   8.040 -0.0061 -0.0929 -0.0057
    1W        W62331   3.450   2.268   8.198 -0.2198  0.1977  0.2261
    1W        W62332  15.025  28.458   1.355 -0.0151  0.1143 -0.1471
    1W        W62333  26.526  23.146   8.691 -0.0577  0.2489  0.1013
    1W        W62334  17.860  10.036   1.454  0.2803  0.1468  0.2340
    1W        W62335  10.712  24.056   2.008 -0.0192 -0.1277  0.2551
    1W        W62336   5.164   3.118   0.137  0.0855 -0.1818  0.1790
    1W        W62337   0.347  23.520   1.419  0.0328  0.0563  0.1214
    1W        W62338  26.703   2.260   8.091 -0.3997  0.0773 -0.2781
    1W        W62339   4.061  29.311   3.830  0.0155  0.0680  0.1226
    1W        W62340  20.398   8.115   1.322 -0.4906  0.2385 -0.0746
    1W        W62341  27.609  27.196   6.899 -0.2120 -0.2283  0.1333
    1W        W62342  22.940  24.269   0.854 -0.0745 -0.2478  0.0130
    1W        W62343  18.400   6.855   8.219 -0.2548  0.0060 -0.1846
    1W        W62344  17.811  22.268   8.893 -0.0252  0.0978  0.2074
    1W        W62345  25.380   9.252   0.582 -0.1216 -0.0161 -0.0905
    1W        W62346   0.586  26.258   7.484 -0.3034  0.1728 -0.1458
    1W        W62347   9.571  12.776   9.364 -0.0170  0.1808  0.0791
    1W        W62348   1.506  18.495   0.445 -0.1002 -0.0380  0.2802
    1W        W62349  11.932  27.797   2.652  0.3258  0.3077 -0.2752
    1W        W62350   9.311   4.253   0.466 -0.0648 -0.0718 -0.2920
    1W        W62351   3.343  26.227   0.929  0.2399  0.0768  0.0102
    1W        W62352  22.040  13.252   0.993  0.3351 -0.1034 -0.0468
    1W        W62353   9.063  23.404   1.468 -0.1610 -0.1677  0.2189
    1W        W62354  21.398  13.914   0.689 -0.2343 -0.1529  0.3377
    1W        W62355  10.735  29.643   1.581  0.0462  0.0174 -0.2824
    1W        W62356  24.077   9.021   6.778  0.1792  0.0968  0.0854
    1W        W62357  16.106  13.167   7.729 -0.2486  0.2508 -0.0069
    1W        W62358  29.729  29.577   2.061  0.0670  0.0282 -0.4054
    1W        W62359  21.596  25.805   7.464 -0.0536  0.3245 -0.0389
    1W        W62360  16.434  11.460   8.673  0.1769  0.0093 -0.0735
    1W        W62361  29.242   3.932   1.519  0.0524 -0.0632 -0.1834
    1W        W62362  29.717  27.150   6.665 -0.2564 -0.1275  0.2114
    1W        W62363  15.108  25.907   7.255 -0.0266  0.2603 -0.2338
    1W        W62364   1.479  21.529   1.248 -0.0103 -0.0375  0.1480
    1W        W62365   5.519   0.248   8.071  0.3232 -0.0467 -0.2409
    1W        W62366   6.851  24.948   7.168 -0.2392 -0.1202  0.3975
    1W        W62367  26.048  10.164   8.641  0.1860 -0.3004 -0.0270
    1W        W62368  20.732  16.216   8.000 -0.1153 -0.1480  0.0278
    1W        W62369   8.003  21.457   8.336  0.1267  0.3405  0.3602
    1W        W62370  29.178   0.990   2.682  0.0103  0.2040  0.0669
    1W        W62371   8.268   1.098   0.840 -0.2269 -0.0815  0.0176
    1W        W62372  18.284  10.604   7.562  0.0075 -0.0364 -0.0842
    1W        W62373   3.593  22.669   2.743 -0.0700 -0.0562  0.1927
    1W        W62374  20.305  13.586   7.046  0.2306  0.0170  0.1057
    1W        W62375  21.010   5.126   0.755  0.1958  0.2164  0.2302
    1W        W62376   4.704  29.030   3.139 -0.4252 -0.0818  0.1962
    1W        W62377   5.309  17.910   1.827  0.0422  0.0628  0.0563
    1W        W62378  16.177  28.438   0.647 -0.3364 -0.0060 -0.0168
    1W        W62379  26.317  18.403   1.111  0.0053 -0.1507  0.0337
    1W        W62380  11.658  27.908   9.361 -0.1165  0.6098 -0.0017
    1W        W62381  20.713  20.993   2.946 -0.0821  0.0898 -0.2838
    1W        W62382   3.271  24.408   8.044  0.1257 -0.1618 -0.1414
    1W        W62383  16.797  15.731   0.035  0.0520 -0.0193 -0.1718
    1W        W62384  29.280   8.461   2.270 -0.1270 -0.3416 -0.2618
    1W        W62385  20.285  11.852   6.278  0.2005 -0.1530 -0.2335
    1W        W62386  26.298  15.929   1.465  0.1652 -0.1465  0.1604
    1W        W62387   0.060  17.716   1.671  0.1125  0.1743  0.0409
    1W        W62388  28.659   4.276   8.432  0.1250 -0.0924  0.0850
    1W        W62389   4.703   0.529   8.579 -0.0051  0.3991  0.1942
    1W        W62390  20.636  21.701   2.360  0.2290  0.0445  0.0019
    1W        W62391  21.527  24.807   9.119  0.0310 -0.1772  0.1645
    1W        W62392  17.330  18.448   8.919 -0.0154 -0.0149  0.1728
    1W        W62393  27.485   5.467   2.309 -0.0730 -0.0630  0.2167
    1W        W62394  11.604  20.939   7.113 -0.0856 -0.1893 -0.0094
    1W        W62395   7.537  23.496   2.551 -0.2159  0.0647  0.0496
    1W        W62396  10.878  16.717   8.946 -0.1239 -0.1172 -0.0178
    1W        W62397   9.607  11.039   3.239  0.1468  0.2437  0.0844
    1W        W62398  24.867  25.349   0.338  0.0927  0.2256 -0.3389
    1W        W62399  11.649  25.432   2.182 -0.2050 -0.0581 -0.0181
    1W        W62400   1.741  21.938   7.488  0.1444  0.0605  0.3700
    1W        W62401  18.240  24.596   0.516  0.1543 -0.3609 -0.2704
    1W        W62402   6.994   5.156   0.951 -0.0283  0.3199 -0.0119
    1W        W62403  24.722  24.366   8.784  0.2084 -0.2266  0.1928
    1W        W62404   1.708   1.504   1.220 -0.1773 -0.0358  0.1100
    1W        W62405  26.424   7.432   8.350 -0.1762  0.1489  0.0209
    1W        W62406   7.360  25.040   7.037  0.2978  0.0799  0.2543
    1W        W62407  20.423  12.228   6.614  0.1900  0.1474 -0.3042
    1W        W62408  12.950   9.055   1.709  0.1837 -0.0431  0.1118
    1W        W62409  16.932  17.935   0.335 -0.0085  0.0308 -0.2180
    1W        W62410   2.837  28.116   0.870  0.2788  0.2127  0.2092
    1W        W62411  18.382  19.198   9.416 -0.0305  0.0118 -0.3080
    1W        W62412  26.036   1.293   7.149  0.3798  0.0339 -0.2455
    1W        W62413  15.985  12.761   9.370 -0.2621  0.1536  0.1596
    1W        W62414  26.104  12.297   9.136 -0.0024 -0.1525 -0.0634
    1W        W62415  14.335   2.364   8.896  0.0963 -0.0544 -0.1805
    1W        W62416   0.186  28.645   1.933 -0.0546  0.1725  0.0718
    1W        W62417  23.439   9.825   8.915  0.2684  0.1290 -0.0229
    1W        W62418   2.653  28.551   0.964  0.0526 -0.0180  0.1748
    1W        W62419  12.619  17.752   7.159  0.0562 -0.2096  0.0270
    1W        W62420   1.308  16.911   7.617 -0.1340  0.0883  0.2360
    1W        W62421  13.944  16.903   6.839  0.0524  0.2783  0.0073
    1W        W62422  28.931  19.417   2.634  0.1775 -0.0465  0.2804
    1W        W62423  16.945  13.924   1.438  0.0866  0.1951  0.1641
    1W        W62424  17.260  12.302   8.522 -0.1222 -0.0889  0.1130
    1W        W62425  14.965  11.631   9.280 -0.2057  0.1191  0.0185
    1W        W62426  18.448   9.078   6.434 -0.0915  0.1682 -0.1866
    1W        W62427  20.815  27.193   0.360  0.2349  0.3050  0.2757
    1W        W62428   5.398  13.200   1.965  0.1102 -0.3752 -0.3365
    1W        W62429  21.838  13.733   8.876  0.0456 -0.1425 -0.1629
    1W        W62430  28.423  21.431   8.126  0.2037  0.1021  0.1171
    1W        W62431  25.892   8.427   0.342  0.3567  0.0019  0.0352
    1W        W62432  17.504  16.568   8.354 -0.0278  0.1346 -0.0537
    1W        W62433  16.412  16.198   2.001  0.0149  0.2561  0.0318
    1W        W62434   4.035   4.208   8.574  0.1355 -0.1680 -0.0839
    1W        W62435   9.318   7.538   9.318  0.0275  0.0373 -0.0846
    1W        W62436   5.687  17.363   6.720  0.2083  0.3804 -0.0170
    1W        W62437   6.555  24.160   7.294 -0.3221 -0.1069  0.0472
    1W        W62438  10.553   7.414   2.775 -0.0879 -0.4224  0.0789
    1W        W62439  13.771  26.589   8.907  0.1163  0.1665 -0.2278
    1W        W62440   9.253  26.318   9.239 -0.1736  0.1493 -0.2208
    1W        W62441  15.014   1.419   3.746 -0.1038 -0.0406  0.0463
    1W        W62442  19.487  24.973   6.767  0.3589  0.3413 -0.0402
    1W        W62443  17.360   2.396   8.371  0.0611  0.0063 -0.0848
    1W        W62444   0.402   2.150   1.062  0.0515 -0.3441 -0.1759
    1W        W62445   8.684  12.322   8.920 -0.2270  0.0145  0.1227
    1W        W62446   2.981   4.304   7.198 -0.1682  0.0726  0.0096
    1W        W62447   2.585  21.791   1.716  0.0164 -0.1604 -0.2492
    1W        W62448  18.197  20.106   7.466  0.1891  0.0065  0.2233
    1W        W62449   8.811  29.306   0.498 -0.2340  0.1602  0.3714
    1W        W62450  23.294  19.919   7.292 -0.2535 -0.0797 -0.1828
    1W        W62451   6.005  18.753   7.434  0.0514 -0.1397 -0.1342
    1W        W62452  11.880   6.123   7.038  0.0664 -0.2664 -0.0469
    1W        W62453  27.870   1.395   8.492 -0.1910 -0.2050 -0.0597
    1W        W62454   5.745  23.054   2.036  0.0197 -0.1498 -0.0116
    1W        W62455  28.785  25.927   6.838  0.0396 -0.1009  0.1772
    1W        W62456   3.843   2.228   1.648  0.0994 -0.1582 -0.0279
    1W        W62457  29.719  23.357   6.802  0.0729 -0.0835 -0.2562
    1W        W62458  25.698  16.809   6.622 -0.0079 -0.2095  0.0915
    1W        W62459  24.386  10.509   0.250 -0.1330 -0.1618  0.1410
    1W        W62460  19.169   3.003   8.871  0.0412 -0.2327  0.0933
    1W        W62461   5.998  24.159   0.567 -0.1457 -0.2011  0.0020
    1W        W62462  26.384  16.139   7.406 -0.0896 -0.3495 -0.1662
    1W        W62463  14.512   2.313   2.730 -0.0118  0.1962 -0.1071
    1W        W62464  10.196  17.952   0.620 -0.0771  0.0848 -0.3140
    1W        W62465  28.370   4.366   8.788 -0.1872 -0.0002  0.1159
    1W        W62466  25.895   6.991   2.683 -0.1095  0.2075 -0.1968
    1W        W62467  20.273   7.173   1.566  0.2071  0.0175  0.1360
    1W        W62468  23.848  13.526   1.678 -0.0166 -0.0306  0.0488
    1W        W62469   1.065  11.493   0.509 -0.1107 -0.1987  0.1663
    1W        W62470   6.652  13.123   9.235  0.0654 -0.3158 -0.2907
    1W        W62471  23.658  11.513   6.245  0.3266  0.1440 -0.1646
    1W        W62472  19.800  12.471   7.870  0.0370 -0.1384 -0.0420
    1W        W62473   4.628   1.297   2.523 -0.0536 -0.0142  0.1166
    1W        W62474  11.938  11.379   0.280 -0.0310  0.2802 -0.0979
    1W        W62475   1.546  14.957   6.957 -0.0515  0.1074 -0.1784
    1W        W62476  23.348  29.424   1.131 -0.0862 -0.0878 -0.1441
    1W        W62477  26.380  22.487   0.584 -0.1101 -0.0205 -0.2012
    1W        W62478  15.691  24.456   3.132  0.3518 -0.0420  0.2010
    1W        W62479  11.359  26.681   9.273  0.1776 -0.2185 -0.4287
    1W        W62480  29.115  13.697   0.727 -0.2396 -0.1195  0.3466
    1W        W62481   0.714   4.955   2.233 -0.0053 -0.2323 -0.2592
    1W        W62482  21.120  18.108   0.289  0.0146 -0.0558  0.1555
    1W        W62483  11.512  27.779   0.893  0.0308  0.1249 -0.2991
    1W        W62484  26.674  23.593   0.646 -0.1157 -0.1177 -0.1447
    1W        W62485  10.697   6.668   2.463 -0.0771  0.2148 -0.0108
    1W        W62486  14.375   2.591   8.480  0.0730 -0.0606 -0.1064
    1W        W62487   0.469   3.903   8.233 -0.0213  0.0454  0.1607
    1W        W62488  22.859  26.184   0.933  0.2524  0.1054  0.0210
    1W        W62489  17.954  22.078   1.488  0.0371  0.0588  0.1907
    1W        W62490  12.127  25.505   1.916  0.1709  0.0826  0.0168
    1W        W62491  12.593  19.783   0.675  0.0586  0.1529 -0.2827
    1W        W62492  19.110   8.518   2.567  0.1980 -0.1128  0.1714
    1W        W62493  13.307  10.064   0.886 -0.1294 -0.0306  0.1078
    1W        W62494   7.511  26.328   0.905 -0.1139  0.0479 -0.1443
    1W        W62495  27.555   3.197   2.022  0.0715 -0.2757 -0.2235
    1W        W62496  20.741   2.935   0.464  0.0719 -0.2726 -0.1855
    1W        W62497  16.843  15.873   8.515 -0.1929  0.0358 -0.1317
    1W        W62498  21.212  18.651   0.755 -0.0173  0.1148  0.4047
    1W        W62499  14.032  26.633   1.253  0.1962  0.0854  0.2376
    1W        W62500  11.239  25.274   1.957  0.2762 -0.1804 -0.1398
    1W        W62501   4.996  16.633   5.647  0.1576 -0.1357 -0.0845
    1W        W62502   3.428  17.461   6.505 -0.3348  0.5979 -0.1100
    1W        W62503  17.370   0.949   0.588  0.0619  0.0845  0.2655
    1W        W62504   5.528   1.826   2.997  0.0897 -0.1403  0.1413
    1W        W62505  21.703  22.639   2.651 -0.1028 -0.1281  0.1158
    1W        W62506  24.328  13.281   7.190 -0.0945 -0.2746  0.1026
    1W        W62507  24.458   6.982   8.202 -0.1711 -0.0571 -0.3415
    1W        W62508  27.110  10.778   6.765  0.1051 -0.0773  0.0924
    1W        W62509   2.938  19.408   2.543  0.2457  0.1539  0.0184
    1W        W62510  15.718   9.570   0.694  0.2245 -0.0564  0.0229
    1W        W62511  10.550  17.123   8.817  0.1062 -0.2463  0.0246
    1W        W62512  26.643   6.923   1.056 -0.0124 -0.1487 -0.0517
    1W        W62513  19.420  14.726   1.870  0.1023  0.0236 -0.1980
    1W        W62514  25.198  11.364   2.103  0.1281 -0.0318  0.0358
    1W        W62515  14.047   3.543   8.725  0.0071  0.4956 -0.0114
    1W        W62516  23.931  22.422   6.974  0.1424 -0.2798  0.0858
    1W        W62517  14.362   5.116   2.051 -0.1136 -0.0388  0.0383
    1W        W62518  20.703  29.810   0.111  0.0479  0.2540 -0.1192
    1W        W62519  20.386  17.665   1.212  0.0771  0.0240 -0.1645
    1W        W62520   2.573  14.633   0.159 -0.0204  0.1735 -0.2566
    1W        W62521   2.066  11.138   2.451  0.1843 -0.0571 -0.1269
    1W        W62522  19.094  20.810   1.682 -0.0808  0.0272  0.0180
    1W        W62523  17.334   3.418   0.624 -0.5179 -0.1594  0.3770
    1W        W62524  22.351  26.925   7.592  0.1967  0.3836  0.0283
    1W        W62525   5.320  21.049   9.232 -0.0774  0.0128 -0.5191
    1W        W62526  21.490  16.326   1.144  0.0490  0.0700 -0.0304
    1W        W62527  16.981  14.187   9.447  0.0183 -0.2949  0.2243
    1W        W62528   1.317  14.454   7.970  0.2477  0.0385  0.1459
    1W        W62529  19.134   7.343   1.618  0.0171  0.0278  0.0305
    1W        W62530  13.374  26.555   1.587  0.0892 -0.0245 -0.0355
    1W        W62531   3.804  21.673   1.825 -0.0074 -0.2003 -0.0399
    1W        W62532  19.327   1.661   8.337 -0.0579  0.0477 -0.0930
    1W        W62533  14.421  21.167   8.783 -0.0162 -0.0592 -0.2856
    1W        W62534  21.041   1.074   1.390  0.3136 -0.1688  0.1747
    1W        W62535  25.407  22.625   6.666  0.0498 -0.2580 -0.1593
    1W        W62536  12.628  23.301   8.136 -0.0325 -0.1348  0.0714
    1W        W62537  10.417   1.331   8.668  0.2880  0.1022 -0.0069
    1W        W62538  14.701  17.684   1.654  0.0026 -0.3234 -0.2285
    1W        W62539   0.342  13.034   1.347  0.1149 -0.0016 -0.0150
    1W        W62540  17.091  13.453   1.336  0.0728 -0.3316  0.1045
    1W        W62541  16.303  21.412   0.497 -0.0056  0.0181 -0.2814
    1W        W62542  15.716  19.378   0.025  0.3088 -0.1179 -0.0140
    1W        W62543  16.249   3.282   6.209 -0.1651  0.0419  0.1966
    1W        W62544  12.895  27.681   1.466 -0.0706 -0.1664  0.0222
    1W        W62545   2.621   5.444   2.338  0.1566 -0.5175 -0.1142
    1W        W62546   2.638   8.271   2.422  0.0400 -0.1373  0.2652
    1W        W62547  15.277  17.563   7.664  0.2461  0.0647 -0.1367
    1W        W62548  26.281   0.668   7.257 -0.0791 -0.3981 -0.0005
    1W        W62549   4.768  20.186   9.001 -0.2086  0.1940 -0.3141
    1W        W62550  16.811  23.989   8.825  0.1030  0.1857  0.0264
    1W        W62551   7.683  23.422   8.054  0.0514  0.1497  0.1536
    1W        W62552  15.074  29.619   8.275 -0.1664  0.2102 -0.4090
    1W        W62553  22.550  28.271   1.478 -0.1666  0.0567  0.0157
    1W        W62554  24.748  20.217   7.339  0.0720  0.1395 -0.0753
    1W        W62555   8.320  27.118   1.585 -0.1129 -0.0398  0.0742
    1W        W62556  29.185  20.492   8.910 -0.0964 -0.0020 -0.2130
    1W        W62557  16.537   3.693   0.931 -0.0237  0.0719  0.0107
    1W        W62558  15.566  28.027   6.727 -0.1398  0.1495 -0.1878
    1W        W62559   2.591  11.403   1.106 -0.0841 -0.1020 -0.0797
    1W        W62560   2.489  28.407   7.964  0.1750  0.3509  0.0928
    1W        W62561  15.514  27.442   7.363 -0.3654 -0.0206 -0.0810
    1W        W62562   3.441  12.909   9.191 -0.1254 -0.0134 -0.2302
    1W        W62563  20.432  26.765   8.916  0.1071  0.1916 -0.1224
    1W        W62564  22.794   1.075   8.112 -0.2392 -0.1537 -0.1206
    1W        W62565   3.550  24.666   0.362 -0.0267 -0.1306  0.0928
    1W        W62566  18.556  12.976   6.650 -0.1021  0.0522 -0.0501
    1W        W62567  24.271  24.825   7.578  0.2605  0.0079 -0.1624
    1W        W62568  29.586  15.499   2.182 -0.1190 -0.0729 -0.3067
    1W        W62569  19.747  24.577   1.087  0.0106  0.0721 -0.0612
    1W        W62570  24.307   0.985   8.647  0.0231 -0.0568  0.1013
    1W        W62571  11.373  24.985   0.922  0.0665  0.0438  0.0866
    1W        W62572  20.403  17.450   2.391  0.0908  0.0169 -0.2836
    1W        W62573   4.780  27.291   1.312 -0.0776 -0.1864  0.0463
    1W        W62574  12.183  10.102   8.490 -0.0887  0.0779  0.1680
    1W        W62575   4.422  10.815   0.076  0.1420  0.1311  0.2730
    1W        W62576  15.864   0.606   0.904  0.0394 -0.0097  0.0546
    1W        W62577  11.477   5.896   8.631  0.1436 -0.0374 -0.0170
    1W        W62578  25.543  20.104   6.876  0.0080 -0.0630  0.3613
    1W        W62579   9.680  26.956   9.444  0.1089 -0.0325  0.0968
    1W        W62580  18.538  23.237   0.546  0.3626  0.1190  0.1958
    1W        W62581  10.392  15.473   0.105 -0.0816  0.1409  0.0342
    1W        W62582  17.739   5.642   8.638 -0.0345 -0.2135 -0.1238
    1W        W62583  25.827  12.369   0.137 -0.1257 -0.1022 -0.0311
    1W        W62584   0.474   1.315   8.194  0.2327  0.2369  0.3919
    1W        W62585  13.742  14.822   7.172 -0.0444 -0.4211  0.0811
    1W        W62586  25.421   5.121   8.745 -0.0879  0.0004 -0.0922
    1W        W62587  14.279  14.718   0.230 -0.3225  0.0482 -0.0704
    1W        W62588  10.030  22.879   0.718  0.0251  0.4219 -0.1183
    1W        W62589   1.207   8.496   0.391  0.1828 -0.0796  0.0950
    1W        W62590   7.013  16.314   6.440 -0.1527  0.2852 -0.1422
    1W        W62591  12.021   7.779   9.149 -0.0236 -0.2027 -0.3773
    1W        W62592   3.529  13.585   6.454 -0.1270  0.2544 -0.0729
    1W        W62593  26.095  13.656   6.047 -0.0698  0.2246  0.1165
    1W        W62594   3.829  19.926   9.402  0.0613  0.2061 -0.1135
    1W        W62595  25.652  10.659   8.339  0.2269 -0.0778 -0.1292
    1W        W62596  27.223  20.975   6.019 -0.1555  0.2641 -0.0461
    1W        W62597  29.752   9.844   6.667 -0.0119 -0.2822 -0.1775
    1W        W62598  29.653  11.214   2.963 -0.0706 -0.1501  0.2708
    1W        W62599  19.128  18.859   9.445  0.0098  0.0749 -0.0308
    1W        W62600  14.298   9.904   7.575  0.1809  0.2463  0.0740
    1W        W62601   6.771   1.303   9.113 -0.1432  0.1758  0.1535
    1W        W62602  24.199   3.083   1.375 -0.1178 -0.1264  0.0740
    1W        W62603   4.699   7.286   7.820 -0.0128 -0.0350 -0.2848
    1W        W62604   9.545  14.068   8.628 -0.4277 -0.1935 -0.0194
    1W        W62605   1.452  12.132   0.116  0.0131  0.0751 -0.1300
    1W        W62606  20.478   0.253   8.057 -0.0806  0.3036 -0.0294
    1W        W62607  17.789  14.954   8.255  0.2379 -0.0140  0.1079
    1W        W62608  24.545  20.954   8.707 -0.0613 -0.0374 -0.3472
    1W        W62609  29.471  13.320   8.374 -0.2179 -0.0695 -0.1488
    1W        W62610   0.290   8.950   2.711  0.0572 -0.1604  0.1894
    1W        W62611   9.983   6.141   1.974 -0.0658 -0.2802  0.1233
    1W        W62612  12.716  18.647   1.897 -0.0489  0.1284 -0.1029
    1W        W62613   4.613   8.844   3.268 -0.2749 -0.0659 -0.0479
    1W        W62614   4.466   4.082   8.895 -0.1762  0.3560 -0.3404
    1W        W62615   5.663  24.848   8.587  0.4886 -0.1495  0.1105
    1W        W62616  11.534  15.382   7.794 -0.0524  0.1357 -0.2015
    1W        W62617  15.305  20.441   7.564 -0.2588  0.0230  0.0119
    1W        W62618   7.851  10.990   3.304  0.1617 -0.0576 -0.0296
    1W        W62619   3.251  16.124   6.887  0.1965 -0.3008  0.2367
    1W        W62620   0.476   7.177   8.622 -0.3260 -0.2210  0.1219
    1W        W62621  27.558   3.739   0.918 -0.2068 -0.0760 -0.2071
    1W        W62622  16.427  18.583   7.939 -0.3258 -0.3263 -0.1263
    1W        W62623   2.981  20.498   0.864 -0.0649 -0.1561 -0.1938
    1W        W62624   3.639  19.972   0.442  0.1074  0.1954  0.0107
    1W        W62625   6.771   7.108   8.466  0.1018  0.1764 -0.2921
    1W        W62626  14.688  14.421   6.854  0.0852 -0.0187  0.0753
    1W        W62627  26.746   7.707   8.817  0.0749  0.0336  0.1740
    1W        W62628  27.412  22.932   7.766 -0.1321 -0.1261 -0.0617
    1W        W62629  19.400  14.769   9.155  0.0997  0.3658 -0.2980
    1W        W62630  28.373  13.588   9.101 -0.0201 -0.1797 -0.3676
    1W        W62631   8.799   0.588   3.733 -0.2177  0.0354  0.2378
    1W        W62632  25.530  26.608   8.629  0.0944  0.0815  0.3734
    1W        W62633  15.963   6.281   2.219 -0.2437 -0.1543  0.1715
    1W        W62634  11.209   6.746   1.302 -0.1370 -0.1351  0.2022
    1W        W62635  13.893  19.235   1.630 -0.1688  0.0230 -0.0041
    1W        W62636  23.289  29.570   0.631 -0.1232 -0.0288 -0.1498
    1W        W62637  11.857  24.038   6.236  0.1621 -0.0402 -0.0102
    1W        W62638  10.901   8.941   8.499 -0.1707 -0.0391  0.0774
    1W        W62639  15.803  29.301   7.523  0.1516  0.0153  0.0778
    1W        W62640  20.625  26.186   1.647 -0.0666 -0.0071 -0.0575
    1W        W62641   7.054   0.868   9.281 -0.1133  0.1066  0.0886
    1W        W62642  28.083  16.783   6.239  0.1058  0.2705  0.4894
    1W        W62643   5.382   9.263   0.109 -0.1024 -0.1740 -0.1239
    1W        W62644   1.510  19.558   8.658  0.0222  0.0499 -0.1120
    1W        W62645   2.404  26.164   8.925 -0.0970  0.0553  0.0648
    1W        W62646  25.017  27.904   0.168 -0.1132  0.1943  0.2354
    1W        W62647   1.698  17.316   8.237  0.0482 -0.0238  0.2801
    1W        W62648  28.217  25.944   7.741  0.3472 -0.3960  0.1400
    1W        W62649   6.343  28.008   6.959 -0.1229  0.2757  0.3232
    1W        W62650  17.776  21.004   7.271  0.2253 -0.0200  0.0647
    1W        W62651   6.945  14.824   0.909 -0.1725 -0.4843 -0.1618
    1W        W62652  16.831  22.867   1.104 -0.2136 -0.2682 -0.2104
    1W        W62653  12.977   0.578   8.411 -0.0008  0.0818 -0.1868
    1W        W62654   7.633   1.743   1.352  0.2662 -0.0597 -0.0504
    1W        W62655  11.318   3.890   3.740  0.3324  0.0403  0.0234
    1W        W62656  14.851  10.377   7.387 -0.3922  0.0009 -0.2157
    1W        W62657  27.936  21.657   7.442 -0.0581 -0.1319  0.0036
    1W        W62658  17.781   4.510   6.455 -0.0388  0.0582 -0.2208
    1W        W62659   7.853  20.747   2.035  0.0014  0.4674  0.3072
    1W        W62660  26.631  12.758   0.336  0.0661  0.3408  0.0029
    1W        W62661   4.047  15.868   1.815 -0.3089 -0.2503 -0.0645
    1W        W62662  27.994  19.341   2.687 -0.0393 -0.1439  0.2397
    1W        W62663  28.438  24.369   8.651  0.3523  0.0449 -0.3689
    1W        W62664   3.529  21.540   7.698  0.1640  0.1528  0.2447
    1W        W62665  27.500  21.772   6.639 -0.1149  0.2738  0.1202
    1W        W62666  17.965   2.559   1.304 -0.0249  0.1095  0.0765
    1W        W62667  20.507   6.520   7.450 -0.4055 -0.3345 -0.5983
    1W        W62668   5.059  26.439   0.936 -0.0478  0.0751  0.2041
    1W        W62669  27.109  21.757   9.366  0.1339  0.0908  0.0618
    1W        W62670   1.109  27.635   0.613 -0.1112  0.3446 -0.2129
    1W        W62671  28.605  10.445   9.106  0.0657 -0.2154  0.2378
    1W        W62672  13.447   0.563   2.783 -0.0081  0.2734  0.0111
    1W        W62673   3.010   9.733   8.021 -0.1007 -0.0500  0.3336
    1W        W62674  26.888  15.477   9.240  0.1403 -0.1521  0.1069
    1W        W62675  10.169   3.608   3.040 -0.1068  0.1936 -0.0837
    1W        W62676   6.043  20.831   7.845 -0.2033  0.0850 -0.1304
    1W        W62677   9.829  16.676   8.868 -0.2442 -0.2093 -0.0900
    1W        W62678   6.003   6.321   2.200  0.2264 -0.0014 -0.1082
    1W        W62679  27.698   1.523   7.131  0.0315  0.1349 -0.2237
    1W        W62680  12.474  13.496   1.469 -0.2041 -0.4461 -0.2036
    1W        W62681  26.008  17.255   1.575  0.0011  0.0399 -0.0194
    1W        W62682  10.246  21.938   6.549 -0.2139 -0.0498 -0.3768
    1W        W62683   2.406  12.127   1.699  0.1431  0.0125 -0.1678
    1W        W62684  19.256  23.011   1.563  0.1879  0.2503 -0.0993
    1W        W62685  27.247  22.550   0.213  0.1430  0.0597  0.5573
    1W        W62686  19.579   9.369   1.348  0.4045 -0.0448 -0.1495
    1W        W62687  18.778  21.833   2.089 -0.0153  0.0075  0.0480
    1W        W62688  15.143   0.894   9.021  0.2296 -0.0228 -0.4303
    1W        W62689  25.530   0.253   9.257 -0.0483 -0.3965  0.1509
    1W        W62690  16.249  24.326   1.855  0.4123 -0.0038 -0.0960
    1W        W62691  29.505   6.169   6.742  0.2920 -0.3473 -0.1140
    1W        W62692   0.051  11.952   6.527 -0.1032 -0.0554 -0.0175
    1W        W62693   7.534  21.566   6.887  0.2835 -0.0233 -0.0682
    1W        W62694  16.675   2.657   0.016 -0.3063 -0.4370  0.1737
    1W        W62695  16.000   6.671   7.364  0.0597 -0.3171  0.1704
    1W        W62696  11.174  27.078   2.766 -0.1328 -0.2084 -0.0160
    1W        W62697  23.409  16.532   1.157  0.3182  0.2748  0.3793
    1W        W62698   0.462  17.122   8.902  0.1257  0.2104  0.0505
    1W        W62699  18.700  13.309   8.493  0.0428 -0.1025 -0.0984
    1W        W62700   1.937  18.557   1.349  0.1674 -0.2315  0.0579
    1W        W62701  12.121   2.212   9.423 -0.7172  0.0063 -0.1080
    1W        W62702   2.293  11.604   1.530 -0.2463 -0.3770 -0.4107
    1W        W62703  11.984  14.219   0.320  0.0968  0.3834  0.1145
    1W        W62704  23.805  19.096   2.266  0.1022  0.1275 -0.0368
    1W        W62705  25.067  11.922   8.955  0.0997  0.2058 -0.0717
    1W        W62706   5.240  25.564   6.798  0.0220  0.1645  0.2755
    1W        W62707  10.789   5.311   6.733 -0.0660  0.0672  0.0229
    1W        W62708  12.171  16.223   8.982 -0.0253  0.1368 -0.0107
    1W        W62709  24.682  22.159   9.394  0.3819 -0.1485 -0.0943
    1W        W62710  17.150  18.619   0.178  0.1011  0.1679  0.0219
    1W        W62711   0.949   1.347   3.111 -0.1487  0.2946 -0.1834
    1W        W62712  29.515  23.356   1.437 -0.1522  0.0762  0.1068
    1W        W62713  27.603  14.463   9.421 -0.3412 -0.1291  0.0339
    1W        W62714  18.144  23.498   1.284 -0.3522 -0.4985  0.1701
    1W        W62715  13.133  29.387   1.066 -0.2724 -0.3367 -0.1079
    1W        W62716  20.930  17.768   6.477 -0.0761 -0.0768 -0.1238
    1W        W62717  11.964  22.135   7.598  0.2471  0.0999  0.0890
    1W        W62718   9.115  27.759   1.986 -0.3133  0.3351 -0.0121
    1W        W62719  21.014   5.988   2.515 -0.0599  0.1343 -0.1061
    1W        W62720  19.652   2.807   2.476  0.1739 -0.1767 -0.0478
    1W        W62721   0.025   8.340   7.734  0.1393  0.1825  0.3278
    1W        W62722   5.767  28.283   8.768  0.3059 -0.0824  0.3956
    1W        W62723   7.964  10.047   0.816  0.0694  0.0779  0.0803
    1W        W62724  14.558  15.071   8.576  0.1016 -0.0793  0.4121
    1W        W62725  26.657   9.136   8.564 -0.0111 -0.1637 -0.0421
    1W        W62726   1.672  18.169   6.941 -0.0161 -0.2505 -0.1426
    1W        W62727  26.732   1.593   7.877  0.0396 -0.2681 -0.2111
    1W        W62728  26.485  17.216   0.482  0.1605 -0.1030 -0.0962
    1W        W62729   8.107  26.072   8.431 -0.3303  0.1918  0.0880
    1W        W62730  22.705  12.354   9.355  0.0189 -0.2771 -0.2374
    1W        W62731   2.724  16.674   6.386 -0.2809 -0.0547 -0.2118
    1W        W62732  17.645  14.709   7.460 -0.2618  0.3031 -0.0488
    1W        W62733   6.682   1.527   7.971  0.0010 -0.2160 -0.1734
    1W        W62734  15.896  20.080   0.236  0.1163  0.0832 -0.2054
    1W        W62735  21.095  16.020   7.591  0.0931 -0.0091 -0.2401
    1W        W62736  17.026  12.317   1.616 -0.0927  0.3431  0.0917
    1W        W62737   0.293  13.584   2.160 -0.0270  0.3541  0.0499
    1W        W62738  23.056  21.009   7.507  0.1849  0.0406 -0.0466
    1W        W62739  19.714   1.293   9.215 -0.2742 -0.0451 -0.1555
    1W        W62740  13.546  24.954   8.106  0.1689 -0.2497  0.1947
    1W        W62741  10.402   1.331   2.348  0.1765 -0.1018 -0.0540
    1W        W62742  12.893  11.302   7.621  0.1759  0.3460 -0.2897
    1W        W62743  21.227  26.323   1.884 -0.2507 -0.0521  0.2371
    1W        W62744  22.184  11.427   8.093  0.0058 -0.1758  0.1693
    1W        W62745  16.302  13.971   2.298  0.0607  0.1236 -0.0110
    1W        W62746   6.256  21.917   1.707 -0.1329  0.1849  0.1516
    1W        W62747  27.786  10.923   2.683 -0.0618 -0.0111 -0.1791
    1W        W62748  18.063  20.192   0.245 -0.1647  0.1095  0.1411
    1W        W62749   8.123   6.614   1.224  0.1956 -0.2310  0.0614
    1W        W62750  18.851  29.758   7.076 -0.3353 -0.2216 -0.2418
    1W        W62751  27.524   3.829   8.811  0.0917  0.2059  0.4074
    1W        W62752   9.912   6.794   8.200  0.0031  0.2760 -0.0017
    1W        W62753  17.542  27.134   1.868  0.0981  0.1151  0.0447
    1W        W62754  17.881   5.667   7.311  0.2680 -0.0446 -0.1552
    1W        W62755   5.414   7.968   8.591  0.2514  0.0215 -0.2291
    1W        W62756  27.782  26.751   8.008 -0.0138  0.0164  0.1849
    1W        W62757  27.792  23.305   6.125  0.0223 -0.2141  0.0688
    1W        W62758  10.707   6.053   0.966 -0.0175 -0.1450  0.0289
    1W        W62759  25.797  20.632   9.067 -0.0117  0.0807  0.2456
    1W        W62760  21.400  24.793   7.949 -0.0434  0.2253 -0.0384
    1W        W62761  20.696   8.981   0.770  0.1257 -0.0560  0.1840
    1W        W62762   0.687   1.810   0.859 -0.1195 -0.2998 -0.0799
    1W        W62763  24.616   9.707   5.746 -0.2588 -0.0133  0.0490
    1W        W62764   9.612  28.457   1.953 -0.0051 -0.0290 -0.2322
    1W        W62765   5.526  26.508   8.876  0.0032  0.1776  0.3013
    1W        W62766  15.037  17.134   7.881 -0.1316  0.1269  0.0376
    1W        W62767   4.595  12.008   0.189 -0.0073  0.0524 -0.1201
    1W        W62768  24.743   0.944   1.817  0.0505 -0.2130  0.0282
    1W        W62769   5.581   6.062   3.203  0.2438 -0.2440 -0.2320
    1W        W62770   1.393   4.771   1.841 -0.1574  0.0103  0.1021
    1W        W62771  14.123   3.853   7.695 -0.0298 -0.3339  0.0065
    1W        W62772  14.770   4.822   7.736 -0.1144  0.2086  0.0679
    1W        W62773  21.266  23.215   3.462  0.0715 -0.0318  0.2880
    1W        W62774  22.990  22.561   8.618  0.4997 -0.1656  0.1965
    1W        W62775  27.432  28.437   7.287 -0.2215 -0.0948  0.0747
    1W        W62776  12.555  27.387   9.385  0.3494 -0.0110  0.4914
    1W        W62777   2.145  29.586   2.943  0.0476  0.1145  0.0995
    1W        W62778   9.552  23.576   7.765  0.0382 -0.0679  0.1390
    1W        W62779  16.496  21.195   1.405  0.1114 -0.2160 -0.2270
    1W        W62780   8.491   2.681   2.684  0.1180 -0.1952  0.0195
    1W        W62781  26.357   3.758   0.932  0.1326  0.1600 -0.1688
    1W        W62782   7.591  23.589   9.315 -0.1416 -0.0249  0.0790
    1W        W62783  19.014   1.408   1.251 -0.1632 -0.0281 -0.0755
    1W        W62784   4.832  14.787   9.324 -0.0992  0.0473  0.0202
    1W        W62785  28.099  18.906   6.533  0.1302  0.2588 -0.1574
    1W        W62786  19.436  19.805   7.192 -0.0358  0.1639  0.3193
    1W        W62787   0.104  21.308   9.063 -0.0519  0.1231  0.1255
    1W        W62788   2.554  19.399   7.646  0.2428 -0.0791 -0.0671
    1W        W62789   2.278  24.957   8.830  0.0848  0.2754  0.1417
    1W        W62790  28.538  26.903   8.553  0.0677  0.2585 -0.1024
    1W        W62791  12.428  20.895   7.461 -0.0043  0.5885 -0.1333
    1W        W62792  20.261  26.842   2.676  0.1709 -0.2526  0.1287
    1W        W62793  10.528   0.554   0.287 -0.3377 -0.3016 -0.5290
    1W        W62794  19.735  28.623   8.992  0.0737  0.3110 -0.0219
    1W        W62795  22.033   7.647   2.246  0.1313 -0.0500 -0.1963
    1W        W62796   1.504   0.284   9.363  0.0925  0.1862 -0.0009
    1W        W62797  11.072   4.984   3.366  0.2993  0.0810 -0.1267
    1W        W62798  18.699  10.187   8.385 -0.2996 -0.2104  0.0407
    1W        W62799  21.290  12.210   7.327 -0.1152  0.0393 -0.1389
    1W        W62800  18.886   0.588   6.303 -0.0362  0.2006  0.1435
    1W        W62801  10.263   1.417   0.032  0.1996 -0.1248  0.0291
    1W        W62802  12.409  12.719   8.537  0.0139  0.0454 -0.1089
    1W        W62803  10.206  14.551   8.045 -0.3096 -0.3378 -0.0302
    1W        W62804  26.188  12.382   7.551 -0.1051 -0.3116  0.1690
    1W        W62805   3.810  25.767   0.075  0.0358 -0.1621  0.2754
    1W        W62806   7.063  19.699   0.311 -0.0031  0.0104 -0.1157
    1W        W62807  23.969  14.020   8.447  0.3416  0.1891 -0.1444
    1W        W62808  29.810  10.291   6.375  0.0608 -0.2239 -0.1669
    1W        W62809  15.330   4.605   2.911 -0.2065  0.2351 -0.4305
    1W        W62810   7.739  17.708   1.419  0.2610  0.1473 -0.2014
    1W        W62811   6.112  11.175   2.100 -0.2428  0.0604 -0.2055
    1W        W62812  28.821   9.185   8.205  0.1742  0.1405 -0.1210
    1W        W62813  15.812  26.354   0.914  0.2354 -0.0459 -0.3068
    1W        W62814   6.288  28.353   1.674  0.0680 -0.1116 -0.0445
    1W        W62815  15.938  14.220   0.339 -0.3334 -0.2308  0.3361
    1W        W62816   7.649  12.450   2.394 -0.2116  0.0424  0.0335
    1W        W62817  22.194  10.753   0.016  0.2093  0.0157  0.2572
    1W        W62818  24.124   2.030   2.874  0.2112  0.2449 -0.1157
    1W        W62819  27.787  10.497   8.929  0.0326 -0.4296 -0.0903
    1W        W62820   5.277  16.953   0.463 -0.3832  0.0705 -0.1423
    1W        W62821   4.382   2.861   7.200  0.1701 -0.0093 -0.0096
    1W        W62822   3.920  23.726   0.864  0.2668  0.2505  0.0521
    1W        W62823  20.371  20.007   0.289  0.0665  0.3135 -0.5659
    1W        W62824   4.699   7.026   9.024  0.0994 -0.0604 -0.2238
    1W        W62825  10.177  26.323   0.868  0.0580  0.1075 -0.1660
    1W        W62826   2.996  16.992   1.504  0.1209 -0.0257 -0.3418
    1W        W62827   2.044  14.865   1.814 -0.0666 -0.1456  0.3080
    1W        W62828  24.063   4.131   7.958 -0.4519 -0.1668  0.0541
    1W        W62829   3.570  21.617   6.786  0.0811  0.0804 -0.3092
    1W        W62830   1.451  16.550   9.271  0.1015 -0.0437 -0.0716
    1W        W62831   9.914  28.808   2.250 -0.0033 -0.0201 -0.0242
    1W        W62832  28.043  19.104   9.319 -0.0562 -0.1235 -0.1553
    1W        W62833   6.286  25.280   9.228  0.0799 -0.2400 -0.0799
    1W        W62834  22.086   8.469   9.308 -0.0039 -0.0821  0.0488
    1W        W62835  25.566  24.944   1.991 -0.1940 -0.2217  0.0198
    1W        W62836  24.454   1.460   2.620  0.0271 -0.0845  0.0988
    1W        W62837   2.320  24.815   6.982 -0.2632 -0.1451 -0.4503
    1W        W62838  12.445  11.350   9.028  0.3115 -0.4944  0.0185
    1W        W62839  15.098  21.583   9.216  0.1879  0.4457 -0.0343
    1W        W62840  16.355  22.367   7.487  0.0234  0.1080 -0.2233
    1W        W62841  10.206  28.399   0.699  0.0707 -0.3811 -0.0457
    1W        W62842  25.505   3.244   9.383 -0.1415 -0.1737 -0.1255
    1W        W62843   1.713  27.722   1.334 -0.0650 -0.1807  0.0178
    1W        W62844   1.788   0.143   8.164  0.3320 -0.1390 -0.0501
    1W        W62845  15.168  21.062   1.570  0.0698  0.0640 -0.3165
    1W        W62846   2.863   6.840   8.210 -0.1212 -0.0840 -0.0694
    1W        W62847  17.868  17.316   8.591 -0.0869 -0.1676 -0.2070
    1W        W62848   4.671  24.112   1.241 -0.2075  0.2183  0.0655
    1W        W62849  13.881  13.009   9.441  0.0932 -0.0758 -0.0792
    1W        W62850  17.803  25.178   0.210 -0.2898  0.1151  0.2122
    1W        W62851   8.063  19.964   7.587  0.3957 -0.0206 -0.2043
    1W        W62852   7.930  20.267   5.409 -0.1070 -0.1910  0.0395
    1W        W62853  12.693  23.708   6.748 -0.0586 -0.0600  0.2899
    1W        W62854  27.777  24.840   8.293 -0.0263  0.0765 -0.1591
    1W        W62855  23.763  21.094   9.371 -0.1621 -0.1443  0.0129
    1W        W62856   4.147  26.550   2.794  0.0648 -0.0276  0.0168
    1W        W62857  20.968  17.079   1.637  0.2336 -0.1082 -0.1705
    1W        W62858   2.404  27.357   0.413 -0.2189  0.2890 -0.2172
    1W        W62859   4.387  27.281   3.095 -0.0127 -0.0859  0.3936
    1W        W62860  23.962   4.444   1.992 -0.0497 -0.2046  0.0067
    1W        W62861   4.797  22.508   8.736 -0.2634 -0.2786  0.0489
    1W        W62862   5.592  26.715   0.702 -0.1343 -0.0533  0.3721
    1W        W62863  28.914   9.056   9.195  0.3418 -0.1035  0.0544
    1W        W62864  16.507   5.080   0.212 -0.0196  0.1887 -0.0985
    1W        W62865   6.154   1.017   2.223  0.1886  0.0572 -0.3144
    1W        W62866  25.425  20.477   8.722 -0.0858  0.3178 -0.1006
    1W        W62867  19.903  21.129   9.105 -0.4019  0.0313 -0.2569
    1W        W62868  27.888   0.464   8.140 -0.4216  0.3391 -0.0799
    1W        W62869  18.626  24.404   8.538  0.0773  0.0661  0.0449
    1W        W62870  13.086   4.312   0.929  0.0014 -0.1991  0.2248
    1W        W62871   3.888   3.178   8.720 -0.2862 -0.3635 -0.0178
    1W        W62872  28.454  22.029   0.111  0.3127 -0.0132  0.1420
    1W        W62873  20.850   9.353   9.337  0.1574 -0.4251 -0.2887
    1W        W62874  12.569  14.739   1.979  0.0695 -0.1003 -0.1522
    1W        W62875   2.464   9.073   7.201 -0.0225 -0.3887 -0.1404
    1W        W62876  15.421  20.293   2.220  0.0265  0.1544 -0.0683
    1W        W62877  25.166   6.682   2.539  0.0421 -0.1428 -0.1285
    1W        W62878   0.814   7.785   5.885 -0.0402  0.0374  0.0610
    1W        W62879  25.736   8.395   6.144 -0.0876 -0.0016 -0.4464
    1W        W62880   7.486   8.441   9.104 -0.2062 -0.2641  0.0116
    1W        W62881   0.363  16.001   0.506 -0.0167 -0.0234  0.0248
    1W        W62882   3.416  25.103   0.118  0.0191  0.0417 -0.1299
    1W        W62883   7.087  23.130   2.494 -0.0598 -0.0121  0.1247
    1W        W62884   6.059  25.323   6.962  0.0486  0.1435 -0.2784
    1W        W62885   3.892  24.701   2.261  0.1462  0.0799  0.0885
    1W        W62886  17.398   8.588   1.687 -0.0502 -0.0447  0.1307
    1W        W62887  17.891  18.697   1.261 -0.1987  0.0354  0.0427
    1W        W62888   0.035   8.987   9.445  0.1253 -0.1716 -0.0190
    1W        W62889  24.648   2.099   1.949  0.0236 -0.0217 -0.0419
    1W        W62890   7.592  16.831   0.305 -0.0278 -0.0422  0.2232
    1W        W62891  12.960   6.245   8.801  0.0214  0.2509 -0.1333
    1W        W62892  18.230  12.943   9.162 -0.0438 -0.2908 -0.0131
    1W        W62893   2.737  18.242   8.463  0.0673  0.1643  0.2182
    1W        W62894  29.462  11.425   8.099 -0.1825 -0.0294 -0.2286
    1W        W62895  12.823  25.027   1.274 -0.1656 -0.2612 -0.0105
    1W        W62896   6.872  27.149   3.253 -0.2862  0.0787 -0.2250
    1W        W62897   2.146  21.307   0.793  0.0308  0.0168 -0.3893
    1W        W62898  15.640  17.766   8.965  0.0390  0.1193 -0.1154
    1W        W62899   1.320  24.914   0.036  0.1971  0.0901 -0.4264
    1W        W62900  24.494   8.381   0.167  0.2639  0.4202 -0.3475
    1W        W62901  19.408  23.587   2.278 -0.3042  0.0413  0.0251
    1W        W62902  26.229  27.685   2.403  0.0869 -0.1218 -0.1837
    1W        W62903  29.785  21.648   0.938 -0.1249  0.2493  0.0851
    1W        W62904  14.698  25.390   0.323 -0.1015 -0.2053 -0.0326
    1W        W62905  12.654   4.824   2.582 -0.2024 -0.3211  0.0221
    1W        W62906  21.007   7.202   9.236  0.0641 -0.1109 -0.0349
    1W        W62907  28.282   1.414   1.394  0.2925 -0.0119 -0.1858
    1W        W62908   5.567   4.559   7.087 -0.2913  0.4400 -0.0204
    1W        W62909  18.306   5.158   9.263 -0.1312  0.0903 -0.1519
    1W        W62910  17.125  15.157   6.741 -0.0897  0.0332 -0.0897
    1W        W62911  22.227  11.218   9.221  0.0325 -0.1099  0.1986
    1W        W62912  17.665   1.997   2.566  0.0148 -0.4595 -0.2385
    1W        W62913  26.938  16.979   0.564 -0.1693  0.0103 -0.0781
    1W        W62914  12.508  10.407   2.006 -0.2053 -0.0589  0.0580
    1W        W62915   0.430  26.341   1.494 -0.2097 -0.0589 -0.3806
    1W        W62916  24.135  25.338   2.657  0.1794 -0.1008 -0.0529
    1W        W62917   7.124   8.622   1.577  0.0443  0.3229 -0.2468
    1W        W62918  28.979   3.403   8.551 -0.2999  0.0638 -0.3129
    1W        W62919   6.401  17.383   5.526 -0.2585 -0.1532  0.2181
    1W        W62920   7.998   7.528   7.692  0.0667  0.2726  0.0508
    1W        W62921   8.314   7.883   9.397  0.2296  0.1383 -0.1364
    1W        W62922  17.687  17.153   0.638  0.0896  0.0321 -0.3089
    1W        W62923  24.420   8.062   7.862  0.0487 -0.0858  0.2291
    1W        W62924   6.744  18.370   6.885 -0.0407  0.0466  0.0369
    1W        W62925  24.285  19.585   6.623 -0.1118 -0.1436 -0.0189
    1W        W62926  12.041   1.557   2.614 -0.0716 -0.1058 -0.0904
    1W        W62927  17.050   0.189   1.290  0.3941 -0.2509  0.0329
    1W        W62928  19.644  25.333   1.794 -0.3244  0.2173 -0.0398
    1W        W62929  29.529  15.287   0.822  0.4205 -0.0307 -0.0146
    1W        W62930  17.384   5.294   1.835  0.0382  0.2881  0.1206
    1W        W62931  25.136  27.401   0.907 -0.5144  0.1833  0.2354
    1W        W62932   2.865   2.696   9.338 -0.3178 -0.1389 -0.1346
    1W        W62933   9.671  19.196   1.272 -0.1239  0.0233  0.0669
    1W        W62934  11.220  12.113   7.911  0.3047 -0.1101  0.1957
    1W        W62935  15.423  27.659   8.485 -0.2027  0.0152  0.2671
    1W        W62936   3.015  28.787   7.026 -0.2025 -0.0483  0.0212
    1W        W62937  11.087  10.476   9.428  0.1761  0.1386 -0.1259
    1W        W62938  23.337  18.438   0.339 -0.1760 -0.1503 -0.0646
    1W        W62939   5.616  11.013   2.413 -0.1081 -0.1698 -0.0974
    1W        W62940  26.600  15.096   1.847  0.0607  0.0647 -0.2110
    1W        W62941  23.782  23.554   0.952 -0.1912  0.1235  0.1091
    1W        W62942  10.377   2.396   9.332 -0.0138 -0.0354 -0.0881
    1W        W62943  13.424   7.007   7.818 -0.0253 -0.1284 -0.0518
    1W        W62944  13.558   0.349   8.523  0.0853  0.2502  0.1366
    1W        W62945   4.581  24.434   6.789 -0.0009 -0.1191  0.1466
    1W        W62946  19.563  25.095   2.762  0.2099 -0.1091  0.1335
    1W        W62947  12.529   7.494   0.823  0.1179 -0.0074 -0.2802
    1W        W62948  18.874   7.124   8.394  0.0105  0.4439  0.0396
    1W        W62949  21.053   4.115   1.658 -0.1315  0.1726  0.0790
    1W        W62950  16.416   9.046   6.823 -0.0869 -0.1704 -0.0010
    1W        W62951   2.254   4.335   7.479  0.3135  0.1012  0.0342
    1W        W62952   8.336  19.066   6.738  0.1758 -0.3535 -0.2843
    1W        W62953   7.913   9.288   8.806 -0.1922 -0.1566  0.1520
    1W        W62954  25.031  26.514   8.509  0.0846  0.3350  0.1953
    1W        W62955  18.658  21.134   0.904 -0.0090 -0.3051  0.2583
    1W        W62956  22.469   7.994   0.564  0.1908  0.2105 -0.0876
    1W        W62957   4.809  10.835   6.459 -0.0350  0.1268  0.2924
    1W        W62958  29.805  10.314   2.714  0.3058  0.3091 -0.3206
    1W        W62959   9.777  24.264   2.347  0.0050 -0.0955  0.2087
    1W        W62960   6.231  28.923   2.353  0.1013 -0.4059 -0.0543
    1W        W62961   8.817  11.066   3.053  0.1419 -0.1730  0.2042
    1W        W62962   6.495  15.355   0.288 -0.0887  0.3120  0.1843
    1W        W62963   9.916   5.613   1.553 -0.1207  0.1722  0.0533
    1W        W62964  24.210  26.094   1.964  0.0105 -0.0677  0.0820
    1W        W62965  26.560  12.719   7.330 -0.1398  0.1610 -0.2385
    1W        W62966  10.917  10.338   1.073 -0.1922  0.1346  0.1252
    1W        W62967  22.196  27.405   7.290  0.2032  0.1834  0.1330
    1W        W62968  12.367  14.570   0.475 -0.0550 -0.1100  0.2537
    1W        W62969   9.906  27.681   0.337  0.0403  0.1796  0.1112
    1W        W62970  22.188  26.568   0.350 -0.0653  0.2219  0.1177
    1W        W62971  23.635  14.967   0.169  0.0443 -0.4563 -0.0738
    1W        W62972  19.052  19.108   0.786 -0.1085  0.0646 -0.1335
    1W        W62973  22.859   5.055   0.833 -0.0445 -0.0564 -0.1895
    1W        W62974  27.862  17.780   7.852  0.0370 -0.1991  0.0415
    1W        W62975  13.277  28.332   2.627 -0.1396 -0.1588  0.0304
    1W        W62976   0.104   2.230   8.049 -0.1101 -0.2604 -0.1777
    1W        W62977  28.477  10.097   7.155 -0.0328 -0.3148  0.1718
    1W        W62978   6.991  21.291   8.643  0.3256 -0.1495  0.2805
    1W        W62979  27.866   2.251   0.986 -0.1021  0.1343 -0.0831
    1W        W62980   8.281   1.397   3.866 -0.0103 -0.2916 -0.0207
    1W        W62981   7.722   5.078   0.141 -0.0716  0.1925 -0.1215
    1W        W62982  18.717   0.936   7.161 -0.1782  0.1222  0.2734
    1W        W62983   1.553  15.084   8.744 -0.0945 -0.2371  0.0546
    1W        W62984  24.203  23.737   8.970  0.0488  0.1924 -0.2322
    1W        W62985  25.060   0.007   0.859 -0.0409 -0.0641 -0.0357
    1W        W62986  23.636  24.473   7.518 -0.1302 -0.3347  0.0482
    1W        W62987   5.730  14.942   9.013  0.1571  0.1402  0.3025
    1W        W62988   5.049  11.218   2.143 -0.1606  0.0536 -0.2559
    1W        W62989  19.481  20.398   9.305 -0.2437 -0.1838  0.0190
    1W        W62990   5.575  19.049   0.772  0.1394 -0.1166 -0.0108
    1W        W62991  18.935  22.965   1.190  0.0653 -0.0663  0.0364
    1W        W62992  27.464  11.605   7.110 -0.0270  0.2183  0.4001
    1W        W62993   8.713  11.851   8.109  0.0242  0.1491 -0.0045
    1W        W62994  24.457  17.385   8.985  0.3553  0.0689 -0.2874
    1W        W62995   6.236  10.166   0.919 -0.1831 -0.1434  0.1034
    1W        W62996   5.354  15.978   7.971 -0.1323 -0.0134  0.1940
    1W        W62997   0.927  26.485   8.491 -0.1436  0.2313 -0.3124
    1W        W62998   0.045  15.947   8.696 -0.1552 -0.0342 -0.0709
    1W        W62999  15.358   7.486   8.492 -0.1243 -0.0356  0.2803
    1W        W63000  14.892  17.948   7.613 -0.0085 -0.3442  0.1485
    1W        W63001  14.909  16.617   6.469  0.1829  0.0398  0.1672
    1W        W63002  25.877  19.878   2.023 -0.1077 -0.1993 -0.1624
    1W        W63003   2.737  23.842   9.389 -0.0778 -0.0349 -0.0561
    1W        W63004   6.068  23.169   1.580 -0.0469 -0.0301  0.0130
    1W        W63005  10.890  26.351   1.405  0.2343 -0.1962 -0.0787
    1W        W63006  26.260  29.809   3.418 -0.1018 -0.1156 -0.0506
    1W        W63007   3.676  18.055   6.289 -0.0672 -0.0182  0.0694
    1W        W63008  19.242  23.812   9.021  0.2409 -0.3998 -0.0743
    1W        W63009  15.608   3.753   1.989 -0.1072  0.1052  0.0738
    1W        W63010  26.562  23.092   0.153 -0.2470 -0.0188 -0.4690
    1W        W63011  12.678   3.931   8.563  0.0807 -0.0636  0.2560
    1W        W63012   7.830  24.854   8.764  0.3460  0.4901  0.3738
    1W        W63013   9.565  22.463   1.543  0.0593 -0.0964 -0.0836
    1W        W63014   0.746  16.935   7.541 -0.0514 -0.2917  0.0963
    1W        W63015   5.738  12.091   1.458 -0.1257 -0.2435  0.2262
    1W        W63016   5.454  22.872   8.026  0.0326  0.1347  0.0747
    1W        W63017   6.940  25.529   2.041 -0.0260  0.0112  0.0642
    1W        W63018   8.906   3.129   8.181 -0.0737  0.0095 -0.0859
    1W        W63019   2.975  12.975   9.402  0.0516  0.1304  0.1204
    1W        W63020   5.713   5.598   0.607  0.0851 -0.0568  0.4066
    1W        W63021  11.382  10.029   9.374  0.0755  0.0654 -0.0950
    1W        W63022  24.998   5.332   8.990  0.0664 -0.0134  0.1931
    1W        W63023  21.902  10.428   6.785 -0.4469 -0.3390 -0.1642
    1W        W63024  19.375  10.961   1.221  0.3688  0.2344  0.2474
    1W        W63025   6.231  26.386   6.963  0.1418 -0.0217  0.2630
    1W        W63026  23.404   7.184   7.181 -0.0206 -0.4719  0.0393
    1W        W63027  11.964  26.382   2.299  0.0907  0.2001  0.3127
    1W        W63028  23.246   7.071   7.670 -0.2748 -0.0733 -0.0025
    1W        W63029   8.390  17.897   2.306  0.0029 -0.0042  0.1184
    1W        W63030  17.787  17.983   2.005  0.0327  0.1967 -0.0474
    1W        W63031   7.302  13.873   1.576 -0.0355  0.4366  0.2720
    1W        W63032  14.130   4.244   1.338 -0.0730 -0.1556 -0.0205
    1W        W63033  24.752   0.992   3.486 -0.1537 -0.1119 -0.0334
    1W        W63034   7.238  26.274   9.034  0.0425  0.1841 -0.0597
    1W        W63035  14.302  14.366   8.128  0.0037 -0.3548  0.0277
    1W        W63036   2.147  17.278   1.388  0.1167 -0.0464  0.0180
    1W        W63037  24.220  25.646   8.354 -0.0134 -0.4035 -0.3237
    1W        W63038   2.601   2.173   2.757  0.0541 -0.2318 -0.0838
    1W        W63039   9.450   7.976   2.227 -0.0987  0.1611  0.4599
    1W        W63040   1.257  20.290   9.273 -0.0377 -0.1688 -0.0554
    1W        W63041  28.973  25.587   1.646 -0.0243  0.3077 -0.0829
    1W        W63042  14.080   7.829   7.793  0.2702  0.1127  0.0229
    1W        W63043  18.334  10.077   1.198 -0.3115 -0.1278  0.0809
    1W        W63044  21.496   9.589   8.418  0.0255 -0.2491  0.1139
    1W        W63045   1.135  23.507   1.695 -0.0121 -0.3893  0.1336
    1W        W63046  16.778  11.477   8.103 -0.0050  0.2246  0.2707
    1W        W63047   3.658  18.334   7.613  0.0825  0.0579  0.5011
    1W        W63048  24.803   6.256   7.291  0.0123  0.0432  0.1394
    1W        W63049   4.553   0.311   0.925 -0.0636  0.1665  0.0536
    1W        W63050  15.956  12.648   7.734 -0.1342 -0.0797 -0.2974
    1W        W63051  18.448  18.073   1.473  0.2746  0.0268 -0.0365
    1W        W63052  29.773  22.769   7.488  0.1403  0.0125 -0.0474
    1W        W63053   9.499   3.168   1.841 -0.0198 -0.1069  0.0596
    1W        W63054  14.724  19.811   8.264 -0.1904  0.0231  0.3108
    1W        W63055   2.673   0.587   1.640 -0.1801 -0.1246  0.1531
    1W        W63056  26.028   4.576   9.431 -0.0572  0.1174  0.0426
    1W        W63057  17.018  15.580   7.611 -0.0668  0.0670 -0.2821
    1W        W63058   8.033   5.547   1.797  0.0595  0.2542 -0.0930
    1W        W63059  25.751   0.583   0.946  0.0518 -0.0417 -0.0232
    1W        W63060  11.074  12.538   8.563  0.0417 -0.2613 -0.0528
    1W        W63061   7.297   0.832   8.480 -0.0078  0.0458  0.0966
    1W        W63062  16.242   0.968   0.545  0.2152 -0.2522 -0.7026
    1W        W63063   4.338  12.937   0.424 -0.1335 -0.2096  0.0403
    1W        W63064  26.095  25.963   8.430  0.2306 -0.1864 -0.1366
    1W        W63065   6.588  17.735   2.113  0.1519  0.1006 -0.0197
    1W        W63066   9.514  14.719   6.989 -0.3134  0.1162 -0.2124
    1W        W63067  17.356   9.352   7.023 -0.1107  0.0786  0.1579
    1W        W63068  17.622  15.299   9.127 -0.0318  0.0087 -0.0805
    1W        W63069   6.383  25.127   6.624  0.0082 -0.1541  0.1163
    1W        W63070  13.673  28.690   2.519  0.0703 -0.1279 -0.1625
    1W        W63071  28.627  11.216   2.907 -0.1276  0.0518  0.1717
    1W        W63072  15.728  23.782   0.634 -0.0663 -0.1300 -0.0333
    1W        W63073   8.863  24.096   0.966 -0.1152 -0.2586 -0.1828
    1W        W63074  10.341  17.342   9.327  0.0891  0.1556  0.2714
    1W        W63075  29.560  27.307   1.318  0.1190 -0.1393 -0.1416
    1W        W63076  22.679  20.125   0.770  0.0466  0.1919  0.1979
    1W        W63077   7.827   4.039   8.169  0.1593  0.0608  0.0432
    1W        W63078  19.819  21.614   0.687  0.2574  0.0614  0.3650
    1W        W63079  21.385   2.725   2.408 -0.1395 -0.0631 -0.4589
    1W        W63080  10.139  22.639   0.220  0.1352 -0.3339  0.2272
    1W        W63081  15.546  26.285   3.535  0.1630 -0.0369 -0.0924
    1W        W63082   0.920   0.191   9.284 -0.0142  0.0184 -0.1411
    1W        W63083  15.378   5.084   7.805 -0.3281  0.0716  0.0389
    1W        W63084  20.292  22.242   1.017 -0.1550  0.1021  0.0182
    1W        W63085  22.054  12.034   7.269 -0.0222 -0.1390 -0.1120
    1W        W63086  11.091   1.214   7.429 -0.1038 -0.3077  0.1808
    1W        W63087  12.803  11.152   9.429  0.2425  0.0774 -0.1911
    1W        W63088  16.240  13.818   0.132 -0.1873  0.1451 -0.0361
    1W        W63089  27.695   2.895   7.747  0.2068 -0.0082  0.0957
    1W        W63090  27.147   7.179   1.092 -0.0457 -0.1372 -0.1036
    1W        W63091  16.071   6.458   8.898  0.2567  0.3323  0.0144
    1W        W63092  11.557  16.633   8.016 -0.1315  0.3288  0.0241
    1W        W63093  28.930  16.901   1.895  0.0054 -0.0217 -0.1168
    1W        W63094  12.084   9.755   0.515 -0.1827  0.3431  0.3871
    1W        W63095   0.357  21.983   8.184  0.2905 -0.0911 -0.0067
    1W        W63096  15.840   3.489   2.374  0.1937  0.2006  0.0607
    1W        W63097   3.074  27.684   1.821 -0.3752 -0.1957 -0.1155
    1W        W63098  23.254  27.352   0.415  0.3051  0.1859 -0.0373
    1W        W63099  20.676  28.667   2.388  0.0158 -0.1000 -0.1968
    1W        W63100   1.873   2.011   1.655 -0.2237  0.2260  0.2051
    1W        W63101   4.628   6.393   8.148  0.4149  0.0934  0.0307
    1W        W63102  17.733  29.145   3.710 -0.2112 -0.2001  0.2999
    1W        W63103  12.560   7.866   2.061  0.2133  0.2132  0.0064
    1W        W63104  20.691  14.195   8.912  0.1469 -0.0586  0.2146
    1W        W63105  11.150  16.123   0.214 -0.2714 -0.1142  0.0480
    1W        W63106   9.742  12.670   1.715 -0.1085 -0.1875 -0.0606
    1W        W63107  25.443  11.829   5.933 -0.3193  0.1770  0.0732
    1W        W63108  14.069   3.468   2.577  0.2062  0.2170 -0.2470
    1W        W63109  18.946   9.382   1.323  0.0049  0.2482  0.0011
    1W        W63110  19.833   4.643   8.404 -0.1029  0.3199 -0.0397
    1W        W63111   9.559  25.865   1.824 -0.1732  0.2197  0.3899
    1W        W63112   6.517   3.021   2.621  0.1619 -0.0457 -0.1642
    1W        W63113   3.382   9.193   1.994  0.1913  0.1914  0.1522
    1W        W63114  13.749  14.253   8.150 -0.1998  0.1790 -0.0111
    1W        W63115   9.227   3.785   3.231 -0.1784 -0.2089  0.0417
    1W        W63116  15.546   9.352   1.690 -0.0827  0.2697  0.1022
    1W        W63117   4.343  14.500   2.092  0.1441  0.0142 -0.0683
    1W        W63118  19.613  10.113   8.511 -0.0374  0.2194  0.0979
    1W        W63119   0.972  20.360   8.341  0.2016  0.2374  0.0737
    1W        W63120   6.780   9.993   8.545  0.2565  0.0648  0.0214
    1W        W63121  16.751   4.134   8.774 -0.0362 -0.0091  0.0178
    1W        W63122  22.526  13.431   1.144 -0.0517 -0.2177 -0.2663
    1W        W63123  18.161  27.663   1.891  0.0384 -0.0379  0.1921
    1W        W63124  28.901  13.711   5.728  0.1888 -0.1880  0.0749
    1W        W63125  11.850   9.931   8.153 -0.0967 -0.1029  0.3805
    1W        W63126  24.518   5.632   7.155  0.0453 -0.3355 -0.0410
    1W        W63127  14.560  28.632   2.304 -0.0226  0.2290 -0.0860
    1W        W63128  17.769  17.264   0.134  0.0941 -0.0585  0.0336
    1W        W63129  16.547  10.437   0.948  0.2025  0.0527 -0.0548
    1W        W63130  17.637  19.964   9.434 -0.1438 -0.2468  0.0069
    1W        W63131  24.707  26.795   2.399  0.2437 -0.2945 -0.2927
    1W        W63132  16.061   6.196   2.717  0.0034  0.2416 -0.1901
    1W        W63133   3.552  26.394   8.279 -0.1264  0.1474  0.1444
    1W        W63134  24.155   7.930   1.033  0.0956  0.4814 -0.0903
    1W        W63135   0.968  10.275   1.820  0.0137  0.0696 -0.3186
    1W        W63136   2.709   4.301   7.628 -0.0813 -0.0123  0.2837
    1W        W63137   6.244  11.112   9.075 -0.1272  0.3594  0.0763
    1W        W63138  23.043  27.774   0.288 -0.0104 -0.2002  0.1579
    1W        W63139   7.393   3.624   0.181 -0.1000  0.0316  0.0868
    1W        W63140   5.513   7.766   0.840 -0.0500 -0.1053  0.1024
    1W        W63141   6.646  10.192   8.069 -0.1320 -0.2139  0.1317
    1W        W63142  19.768  25.582   2.787  0.0020  0.2010 -0.0258
    1W        W63143  21.759   4.520   0.608 -0.1537  0.1248  0.1508
    1W        W63144  27.521  27.711   9.150  0.2439  0.0566 -0.1440
    1W        W63145  29.632  13.729   6.991 -0.1641 -0.1513  0.1715
    1W        W63146   4.159  18.238   6.208  0.3809  0.2780  0.2319
    1W        W63147   9.613   7.873   3.099 -0.0530 -0.0270  0.0441
    1W        W63148  29.322  27.920   0.170 -0.2158 -0.0140  0.2623
    1W        W63149  21.229   7.750   1.202  0.1165  0.0084  0.3829
    1W        W63150   5.024  20.480   1.224 -0.1089  0.1772  0.0566
    1W        W63151   4.820  28.592   1.642 -0.1303 -0.3097  0.6017
    1W        W63152  14.747  28.163   1.036 -0.0766 -0.0510  0.3215
    1W        W63153  10.500   7.147   2.332  0.0942  0.0139  0.0280
    1W        W63154  27.472   5.074   1.060 -0.1259  0.1542  0.0330
    1W        W63155  19.799  10.894   1.660  0.0030  0.1288 -0.1091
    1W        W63156   8.920  11.493   7.824  0.1563 -0.2877 -0.2818
    1W        W63157  27.454  27.341   1.692  0.1384  0.1888 -0.1794
    1W        W63158  19.574  20.556   8.687 -0.0452  0.4144 -0.1250
    1W        W63159  23.329  28.221   7.283  0.0715 -0.0061 -0.1137
    1W        W63160  23.693   6.502   6.809 -0.1250  0.3765 -0.0792
    1W        W63161  12.263  10.086   1.634 -0.0240 -0.0692 -0.0779
    1W        W63162  24.937  11.565   1.706  0.1044  0.0813 -0.1257
    1W        W63163  27.823   3.533   1.820  0.1708  0.1666  0.1195
    1W        W63164   3.023  26.533   7.676  0.2350 -0.1062  0.1930
    1W        W63165  20.621  28.874   6.842 -0.0222 -0.1028  0.0857
    1W        W63166  21.040  12.688   8.240 -0.0095 -0.0558 -0.0661
    1W        W63167  13.768   4.541   2.814  0.0119  0.0057 -0.0389
    1W        W63168  12.940  23.285   8.616 -0.2670 -0.0808  0.1835
    1W        W63169   7.621  12.567   6.724  0.0623 -0.3084 -0.1077
    1W        W63170  27.106  25.279   9.424 -0.1194  0.0799  0.0731
    1W        W63171  28.049  26.792   8.472  0.0051  0.3892  0.0909
    1W        W63172   4.818  15.117   6.146 -0.0105  0.4310 -0.3307
    1W        W63173  16.839   7.014   6.401 -0.0601  0.0231  0.0255
    1W        W63174   0.998   5.356   7.593  0.0421 -0.1708 -0.2306
    1W        W63175  29.610  19.085   9.068  0.3118 -0.0836 -0.1575
    1W        W63176  18.652  18.901   1.644 -0.0292  0.0890  0.1878
    1W        W63177   9.789  28.494   8.753 -0.2190 -0.2201 -0.0055
    1W        W63178  26.624  17.809   7.327 -0.3475  0.0982 -0.0340
    1W        W63179  28.136   4.761   7.450  0.0306  0.2531 -0.0366
    1W        W63180  28.166  26.424   8.083  0.0767 -0.2933  0.1870
    1W        W63181  27.993  23.064   1.382  0.1240  0.1866 -0.0442
    1W        W63182  13.444  20.098   2.659 -0.0554  0.1220  0.1012
    1W        W63183   7.170   8.410   7.430  0.0402 -0.1749  0.1555
    1W        W63184  19.229  21.068   9.144  0.0229  0.0184 -0.0178
    1W        W63185  24.189   4.899   0.886 -0.0627  0.1084 -0.1933
    1W        W63186  26.773  18.829   0.487  0.5389  0.0658 -0.2309
    1W        W63187  17.505   4.301   8.188 -0.2734 -0.2552  0.1153
    1W        W63188   0.617  26.032   1.097 -0.1682  0.1371  0.1245
    1W        W63189  10.892  26.362   6.344 -0.1125  0.4824  0.3822
    1W        W63190  25.823  10.830   0.222  0.0531  0.1634  0.0212
    1W        W63191   8.479   6.831   1.717 -0.2171  0.1418  0.0553
    1W        W63192  25.119  13.149   0.051 -0.3347  0.2943 -0.1230
    1W        W63193  25.752  17.676   1.750 -0.1849 -0.1907  0.1549
    1W        W63194  25.544  27.249   0.590 -0.1321  0.0234 -0.0939
    1W        W63195  20.560  24.627   8.980 -0.2541  0.1071  0.2276
    1W        W63196  29.150  16.900   8.081  0.1867  0.1720  0.2053
    1W        W63197  23.143  10.056   0.243  0.1012  0.1128  0.1303
    1W        W63198   9.695  18.644   1.253  0.0013 -0.2098 -0.1997
    1W        W63199  20.449  10.220   9.012  0.2541 -0.1513 -0.0736
    1W        W63200  18.107   2.593   7.044  0.3654  0.0469  0.0079
    1W        W63201  14.109   9.474   8.389 -0.1151  0.2310 -0.0995
    1W        W63202  25.405  18.132   7.126 -0.3600  0.1784  0.2570
    1W        W63203  27.992  26.087   2.349 -0.1787 -0.0602  0.4994
    1W        W63204  29.766  16.267   6.403 -0.2430  0.0969 -0.0321
    1W        W63205  13.660  25.575   9.455 -0.0582 -0.0849 -0.2182
    1W        W63206   3.454   2.709   2.268 -0.1521  0.0773  0.0101
    1W        W63207   9.070  12.244   2.075 -0.0304 -0.3628 -0.2325
    1W        W63208  14.624  24.481   0.483 -0.1186  0.0908  0.2279
    1W        W63209  23.206  19.224   7.415  0.0540  0.1393  0.1062
    1W        W63210  28.983   6.112   6.727 -0.2101  0.1838 -0.0331
    1W        W63211  11.790  19.490   7.388 -0.4060 -0.4239  0.0060
    1W        W63212   4.999  24.132   6.900  0.1105  0.1722 -0.1261
    1W        W63213  25.482  18.834   0.591  0.2056  0.3840  0.1547
    1W        W63214  15.343  24.124   1.917 -0.2132 -0.2075 -0.0536
    1W        W63215  17.175  23.743   7.348 -0.4604  0.1542 -0.0394
    1W        W63216   4.831   1.425   0.483  0.1210  0.2542 -0.0658
    1W        W63217  12.896  11.922   8.168  0.1595 -0.2967  0.0853
    1W        W63218  11.164  11.797   0.246  0.1331 -0.0421  0.2009
    1W        W63219  23.446  20.860   7.158 -0.2784  0.2469 -0.0528
    1W        W63220  15.838  23.406   8.385 -0.2075 -0.1741 -0.2307
    1W        W63221  18.376  23.048   8.435  0.2113 -0.1768  0.3763
    1W        W63222   3.965   0.839   2.072  0.0137 -0.1899 -0.0768
    1W        W63223   4.282  11.265   0.829 -0.0880  0.2712 -0.0539
    1W        W63224  27.471  13.981   0.943 -0.0533 -0.1746 -0.0021
    1W        W63225  29.471   5.639   9.057  0.2619 -0.0146  0.0378
    1W        W63226  28.698  19.864   2.638  0.0575  0.1619 -0.0890
    1W        W63227   7.344   0.982   0.703 -0.2777  0.1920  0.0925
    1W        W63228  26.846  15.171   7.308  0.1084 -0.2118 -0.0223
    1W        W63229  21.366  11.144   0.020  0.2304  0.0632  0.0472
    1W        W63230  10.595  14.633   9.423 -0.3534 -0.3957  0.0765
    1W        W63231   3.190  18.138   0.270 -0.0809 -0.2728  0.0727
    1W        W63232  26.272   7.021   6.506 -0.2092  0.1124  0.1975
    1W        W63233   6.030  25.800   8.588 -0.2036 -0.2159  0.2030
    1W        W63234  29.676  18.623   1.103 -0.2609 -0.1151  0.0098
    1W        W63235  11.467  26.325   8.839 -0.2843 -0.2160 -0.1229
    1W        W63236   8.670   1.716   2.905  0.0670 -0.0181  0.1584
    1W        W63237  24.820   4.438   8.451  0.0911 -0.1099 -0.1107
    1W        W63238   0.729  23.586   6.321 -0.3496  0.1457 -0.3544
    1W        W63239  25.133  22.161   8.259  0.0286  0.1998 -0.1524
    1W        W63240   8.401  24.080   1.726  0.0111 -0.0419 -0.3179
    1W        W63241   6.888  17.388   7.823  0.1115 -0.0714  0.0485
    1W        W63242  16.510  28.030   7.095  0.3996  0.2748 -0.4313
    1W        W63243  16.254  10.454   1.704 -0.1421  0.0117 -0.0006
    1W        W63244  10.825  22.619   9.011 -0.2058 -0.1660  0.1872
    1W        W63245  25.011   9.971   7.152 -0.0023  0.0579 -0.1693
    1W        W63246   0.528  18.526   1.831 -0.1732 -0.0367  0.2416
    1W        W63247   2.015  11.461   1.944  0.0630 -0.0462  0.0941
    1W        W63248   8.961  11.449   8.337 -0.0240  0.0105  0.1632
    1W        W63249  22.966  23.205   2.664  0.2149  0.0552  0.1625
    1W        W63250  16.482  25.047   0.471 -0.0062 -0.2201 -0.1455
    1W        W63251  26.895  13.210   8.116  0.0984  0.2158  0.1668
    1W        W63252  12.468  14.946   1.480 -0.1491  0.2399 -0.0503
    1W        W63253  26.131   0.343   6.880 -0.1513 -0.1764 -0.1995
    1W        W63254  26.656  22.073   8.985  0.0186 -0.1656  0.2640
    1W        W63255  12.521  12.938   0.358  0.1926 -0.0912  0.3258
    1W        W63256  21.646  19.381   7.758  0.0015 -0.1282  0.0559
    1W        W63257  21.246  18.628   6.469 -0.0141  0.1604  0.0097
    1W        W63258  26.656  27.890   7.094 -0.1180 -0.1493 -0.0919
    1W        W63259  15.611   0.022   2.333 -0.0507  0.1274 -0.2359
    1W        W63260   0.029  15.447   6.592 -0.1251  0.0985  0.2000
    1W        W63261  28.639  26.595   1.536 -0.0584 -0.0370  0.0963
    1W        W63262  20.165  24.920   9.235 -0.1499  0.3805 -0.0270
    1W        W63263  18.978   9.891   7.873  0.2829  0.1358 -0.1597
    1W        W63264   1.323  12.748   2.227  0.2811 -0.1519  0.2567
    1W        W63265  24.481  21.033   7.107 -0.1931 -0.4768  0.1786
    1W        W63266   1.381  28.701   8.828 -0.0257 -0.0559 -0.0797
    1W        W63267   1.046  16.412   9.008 -0.1438 -0.0574  0.1475
    1W        W63268  19.125   8.928   8.555  0.0669 -0.0478 -0.0426
    1W        W63269  18.862  16.630   0.386 -0.2123 -0.2290  0.2871
    1W        W63270   1.982  27.133   0.579  0.1855  0.1841  0.0301
    1W        W63271  10.909  16.322   7.398  0.1574  0.0469  0.0406
    1W        W63272   4.963  10.493   2.844  0.2344 -0.0115 -0.0639
    1W        W63273  23.963  22.218   8.716 -0.2992 -0.1122  0.0138
    1W        W63274  23.136  15.263   2.203 -0.1667  0.4079  0.0665
    1W        W63275  26.673  23.264   2.049  0.1412  0.0140 -0.3689
    1W        W63276  14.893  18.665   8.672 -0.4059  0.2007  0.0260
    1W        W63277   1.916  12.147   0.287 -0.0266 -0.0373  0.1042
    1W        W63278  19.528   5.166   6.241 -0.1223 -0.1932 -0.1486
    1W        W63279   2.610  27.283   6.651  0.0493 -0.3391 -0.0591
    1W        W63280  26.734  19.694   0.893 -0.2508  0.0278  0.3135
    1W        W63281  18.062  21.611   8.389  0.1738 -0.0143  0.1195
    1W        W63282  25.206  28.637   1.615  0.0766  0.1738 -0.1493
    1W        W63283   6.789  26.066   8.681 -0.1746 -0.4570 -0.0459
    1W        W63284  20.465  27.840   7.780  0.1256  0.0686 -0.2139
    1W        W63285  28.488  11.711   1.161  0.0542  0.0827 -0.3106
    1W        W63286   0.644   0.161   0.901 -0.1706 -0.1025  0.4178
    1W        W63287  18.855  24.955   1.689 -0.1500  0.2774  0.2312
    1W        W63288   6.169  16.466   0.555 -0.2481  0.1029  0.0069
    1W        W63289  23.101  20.738   2.562 -0.0651  0.2643 -0.0417
    1W        W63290   8.543   0.631   2.647 -0.0824  0.0044 -0.1513
    1W        W63291  29.046  28.048   2.420 -0.1004  0.1238 -0.1819
    1W        W63292  10.161  25.148   8.749 -0.2144 -0.0633 -0.0277
    1W        W63293  13.130   1.903   7.085 -0.1512 -0.2255  0.1565
    1W        W63294   2.022  22.014   8.280 -0.4385  0.3384  0.2134
    1W        W63295  12.815  15.047   1.114  0.3020  0.1705  0.1387
    1W        W63296   6.644  11.321   6.427 -0.3345 -0.2048 -0.0620
    1W        W63297  27.217  27.568   1.344  0.4090  0.0607  0.1406
    1W        W63298  12.052  23.442   9.415  0.1382  0.2088  0.2962
    1W        W63299   7.389  24.603   1.524 -0.0596  0.2190  0.0135
    1W        W63300  15.708  16.919   8.216 -0.0251  0.0163  0.0542
    1W        W63301  17.817   9.357   1.324 -0.0167 -0.0827  0.1441
    1W        W63302   5.586  24.219   0.856 -0.0644 -0.0329 -0.2490
    1W        W63303  15.121  24.875   0.618 -0.3189  0.0145  0.0847
    1W        W63304   4.727  12.167   2.463  0.1346  0.3232  0.4922
    1W        W63305   5.736  10.322   3.511  0.0123 -0.0204 -0.0256
    1W        W63306  19.358  19.673   0.683 -0.2217 -0.1787  0.0463
    1W        W63307  15.918  11.215   7.261  0.1742  0.0737  0.2197
    1W        W63308   3.014  29.128   1.043 -0.2698 -0.2971  0.1131
    1W        W63309   5.568  26.280   0.424  0.1614 -0.1104  0.0010
    1W        W63310  24.789  29.584   9.085 -0.1040 -0.0997  0.1198
    1W        W63311  22.713  11.621   7.083 -0.1166 -0.1745  0.0065
    1W        W63312  12.905  13.375   8.550 -0.0459 -0.0405 -0.0131
    1W        W63313   2.612  15.106   0.489 -0.2138  0.1106  0.0436
    1W        W63314  12.115   2.519   3.453  0.3376 -0.1918  0.0219
    1W        W63315  26.909  17.373   8.220 -0.0602 -0.2559 -0.0569
    1W        W63316   0.025  21.763   7.869  0.0605 -0.0747  0.0890
    1W        W63317  22.344   7.153   7.056  0.3271  0.2293 -0.1394
    1W        W63318  17.567  10.214   9.047 -0.0016  0.1214  0.0003
    1W        W63319   2.697  29.090   9.358 -0.1095 -0.0032 -0.2143
    1W        W63320   5.554   3.223   3.326  0.3244  0.1013 -0.0972
    1W        W63321   4.714   9.441   1.307 -0.0471 -0.0149 -0.1080
    1W        W63322   0.598   8.182   1.281 -0.3239  0.0465 -0.0290
    1W        W63323  15.048   9.077   2.369  0.1341  0.1074  0.2300
    1W        W63324   3.371  14.264   6.619 -0.0169 -0.0074 -0.1843
    1W        W63325   4.431  28.006   8.735  0.0770 -0.2010  0.1244
    1W        W63326   2.819  25.435   1.218 -0.1707 -0.1197 -0.1450
    1W        W63327  16.692   0.638   1.340 -0.3160 -0.1143  0.3272
    1W        W63328  18.903  20.757   8.920  0.1983  0.1334  0.1784
    1W        W63329  27.012   6.815   1.378 -0.1679 -0.2399 -0.0341
    1W        W63330  10.521  28.332   9.357 -0.2714 -0.0124  0.0530
    1W        W63331  20.815  21.180   1.670  0.0046  0.3367 -0.1091
    1W        W63332   3.090   7.886   7.492 -0.2690 -0.0168  0.0322
    1W        W63333   6.132   9.026   8.441 -0.1619 -0.1815  0.0691
    1W        W63334   6.517   3.686   3.363 -0.2386  0.1111  0.1486
    1W        W63335  21.787   0.109   2.193  0.1302 -0.1134  0.1546
    1W        W63336  17.659   7.633   0.604  0.0954 -0.2549  0.2388
    1W        W63337  11.795  17.385   1.400  0.0003 -0.0297 -0.3571
    1W        W63338  12.718   3.205   8.077 -0.2708  0.0519 -0.1753
    1W        W63339   9.819  15.017   0.539 -0.0930  0.0063 -0.0333
    1W        W63340  10.430   7.392   1.139 -0.0369  0.0684 -0.0191
    1W        W63341  14.751  10.270   8.091  0.0726 -0.0870 -0.1260
    1W        W63342  29.633  15.432   9.135  0.0338  0.0554 -0.2386
    1W        W63343  25.395   4.247   0.498 -0.1356  0.0338 -0.0924
    1W        W63344   8.865   3.902   2.437  0.0327 -0.0663  0.2210
    1W        W63345  15.418  20.994   2.097 -0.0011 -0.0763  0.3079
    1W        W63346  21.857  19.892   7.657  0.3544  0.0820  0.1843
    1W        W63347  25.679  14.295   8.786  0.2260  0.4596 -0.0018
    1W        W63348   2.166   1.528   8.509 -0.4389 -0.0108 -0.0933
    1W        W63349   7.054  18.446   1.485  0.0601 -0.1417  0.2942
    1W        W63350  21.353  25.752   6.549 -0.2780 -0.0031  0.3230
    1W        W63351  21.037   7.742   9.082 -0.2335 -0.0431 -0.1435
    1W        W63352   3.012   8.320   9.411 -0.3160 -0.1454 -0.0324
    1W        W63353  23.883  25.666   7.234 -0.2022  0.1267  0.0722
    1W        W63354  12.835  10.231   9.289  0.1774 -0.1035 -0.0582
    1W        W63355  11.614  18.363   0.195 -0.3192  0.1314  0.1470
    1W        W63356   6.223  19.944   9.087 -0.0334  0.0042 -0.1881
    1W        W63357  27.589  26.041   6.237 -0.0991  0.0084 -0.1880
    1W        W63358   6.224   5.395   9.342  0.2166  0.1485 -0.5125
    1W        W63359  28.089  27.352   9.156  0.1961 -0.3246 -0.0426
    1W        W63360  11.666   2.686   3.394 -0.0867  0.1828  0.2734
    1W        W63361  14.903  14.765   8.340  0.1434  0.0420  0.0144
    1W        W63362  18.190  27.637   8.459 -0.2245 -0.1104  0.0294
    1W        W63363   2.272   1.926   3.595 -0.0876 -0.0806  0.1195
    1W        W63364  18.462  18.282   7.233  0.3796 -0.0081 -0.2118
    1W        W63365   5.176  11.024   7.598 -0.0368  0.0727  0.3319
    1W        W63366  29.197  16.059   1.585 -0.0377 -0.3282  0.2062
    1W        W63367   3.645  29.112   6.408  0.2831 -0.1384  0.0407
    1W        W63368  27.143   5.640   8.829 -0.0045  0.0008  0.2148
    1W        W63369   4.160   0.621   1.159 -0.1442 -0.3057 -0.1195
    1W        W63370  29.636  27.742   7.400 -0.0302 -0.2260 -0.2580
    1W        W63371  11.011   5.602   3.413  0.1836 -0.0248 -0.1689
    1W        W63372   6.099   9.724   9.124  0.4084 -0.1059  0.0519
    1W        W63373   7.368  26.823   9.198  0.0898 -0.0673  0.0302
    1W        W63374  11.391   5.012   2.900  0.1278 -0.0182  0.0662
    1W        W63375  15.551   4.368   2.540 -0.0953 -0.0877  0.2278
    1W        W63376  29.763   5.846   7.041  0.0158 -0.3166 -0.0988
    1W        W63377  28.215  12.551   0.617 -0.0272 -0.0836 -0.0021
    1W        W63378   8.628  22.844   0.401 -0.1348  0.3847 -0.4345
    1W        W63379   6.958   7.507   3.915 -0.4798  0.2977  0.0190
    1W        W63380   1.542  15.572   6.204  0.0178 -0.1469  0.0224
    1W        W63381  13.550  21.547   1.096  0.1092 -0.1800 -0.0289
    1W        W63382   4.905   1.246   1.834  0.0676 -0.0902 -0.0746
    1W        W63383  16.506  28.799   7.861  0.0379 -0.0828 -0.0086
    1W        W63384   0.886  21.759   7.339 -0.0000 -0.1158 -0.0127
    1W        W63385  13.825  11.107   0.886 -0.0962 -0.0651 -0.0440
    1W        W63386  13.924  12.118   9.176 -0.0056  0.2269 -0.0993
    1W        W63387  24.856  19.652   1.063  0.0276  0.0771  0.2375
    1W        W63388  25.057  22.755   8.338  0.1244  0.2165  0.1836
    1W        W63389  15.317  24.052   8.974  0.0288  0.1352 -0.0797
    1W        W63390  22.359  12.207   0.206 -0.2467 -0.2531 -0.0973
    1W        W63391  18.770   5.097   2.787 -0.1010 -0.0940  0.0466
    1W        W63392  27.499  14.959   1.839 -0.0967 -0.0743  0.0089
    1W        W63393  27.391  20.438   6.249 -0.0047 -0.0204 -0.1873
    1W        W63394  19.114  10.863   2.168  0.4202  0.0874 -0.3738
    1W        W63395  24.802  18.395   7.768  0.0441 -0.2938 -0.0440
    1W        W63396   6.379  20.854   8.891 -0.1444 -0.2908 -0.1835
    1W        W63397  12.508   2.519   3.824 -0.2745 -0.2259 -0.1044
    1W        W63398  25.659  19.728   2.407  0.2642  0.0392  0.1442
    1W        W63399   4.390  13.027   7.907  0.0185  0.0942 -0.1814
    1W        W63400  13.115  26.994   2.815 -0.1323 -0.1986 -0.0387
    1W        W63401  23.790  15.441   0.234 -0.0138  0.0244  0.0170
    1W        W63402  18.929  17.115   1.768  0.0322  0.0881  0.0565
    1W        W63403  28.767  13.507   8.723  0.1525 -0.0260  0.0282
    1W        W63404  26.451   1.980   7.737  0.2185 -0.1845  0.0463
    1W        W63405  13.011  12.864   0.957  0.2359  0.0148  0.2459
    1W        W63406   4.299   1.588   2.301  0.1413  0.2801  0.1785
    1W        W63407  24.904   4.230   1.960 -0.0562 -0.0461  0.2377
    1W        W63408  16.050  25.252   8.843  0.3717 -0.2310  0.1972
    1W        W63409  16.309  16.617   9.449  0.2104  0.1161 -0.2318
    1W        W63410   7.793  19.254   7.037 -0.2294  0.2712 -0.2244
    1W        W63411   7.075   0.319   7.211  0.2223 -0.2258  0.0817
    1W        W63412  25.972  17.353   9.224  0.5255  0.2146 -0.0896
    1W        W63413  21.953   5.637   2.303 -0.0475 -0.3106 -0.0662
    1W        W63414  10.154  13.584   9.135  0.1705 -0.1221 -0.0253
    1W        W63415  10.800  13.915   2.077 -0.1571  0.2601  0.1768
    1W        W63416  19.011   6.682   2.284  0.0529  0.0284  0.0879
    1W        W63417   3.413  14.762   6.738  0.4117  0.0481  0.1572
    1W        W63418  15.817  24.628   1.597  0.0529 -0.0960 -0.1653
    1W        W63419  28.593  10.240   2.556 -0.1276  0.2422  0.0085
    1W        W63420   6.844  28.515   8.360  0.0238  0.1596  0.0260
    1W        W63421   7.969  13.357   1.053 -0.0141  0.1760  0.2168
    1W        W63422   0.025  15.482   1.261 -0.3399 -0.1528 -0.0074
    1W        W63423  10.029   5.098   0.799  0.0650 -0.1343 -0.0162
    1W        W63424  11.905  23.052   6.484  0.0706 -0.0853 -0.1205
    1W        W63425   4.587   1.878   0.315  0.4760  0.0340  0.1344
    1W        W63426   9.905  22.081   7.399  0.0282  0.0346  0.1171
    1W        W63427  23.545  14.934   8.064 -0.4577  0.1533  0.1789
    1W        W63428  12.920   6.225   0.628 -0.1278  0.0867  0.1275
    1W        W63429  14.705   6.762   0.744 -0.2063 -0.0997 -0.1984
    1W        W63430   2.905  10.529   8.546 -0.1273 -0.1886  0.2592
    1W        W63431   5.849   2.503   7.933 -0.4922 -0.2264  0.0400
    1W        W63432  21.600  17.104   1.717  0.1372 -0.3067  0.1320
    1W        W63433  23.324  12.566   1.673 -0.1323  0.0249 -0.2430
    1W        W63434   3.895   9.208   1.917  0.0992  0.0316  0.1837
    1W        W63435  23.143  25.376   2.051 -0.2384 -0.2522 -0.1346
    1W        W63436  15.039  20.959   6.966 -0.0095 -0.2364 -0.0954
    1W        W63437  17.551  26.714   2.132  0.1922 -0.1566 -0.0069
    1W        W63438  17.445   8.839   7.218  0.0354 -0.2818  0.3425
    1W        W63439  20.364  20.759   0.492  0.0713 -0.0966 -0.1314
    1W        W63440  27.074  12.866   6.632 -0.1653 -0.1733  0.0522
    1W        W63441  29.298   0.194   9.295  0.1823  0.1433  0.2849
    1W        W63442  26.928   9.369   1.381  0.1502  0.2207  0.0743
    1W        W63443   0.922   5.993   9.031  0.1997 -0.0621  0.0966
    1W        W63444   2.846   9.903   0.043 -0.2399  0.1843 -0.0959
    1W        W63445  12.976   2.674   3.555 -0.0201 -0.2907 -0.3424
    1W        W63446  11.341  21.452   0.510  0.2579  0.3051 -0.2417
    1W        W63447  19.385   3.678   8.208  0.1823 -0.1319 -0.1448
    1W        W63448   9.420  20.719   8.292 -0.0711  0.2208  0.1160
    1W        W63449   3.083  14.518   2.373  0.1988  0.0763 -0.1373
    1W        W63450  11.319  24.258   8.933 -0.0191 -0.3776 -0.0247
    1W        W63451  19.098  20.956   1.160  0.0377  0.0723 -0.2517
    1W        W63452  18.988  12.093   1.655 -0.3400 -0.4142 -0.0516
    1W        W63453   6.338  23.676   2.342  0.1775 -0.2701 -0.3961
    1W        W63454  11.149  17.222   0.849  0.1006 -0.1694 -0.4505
    1W        W63455  28.557  24.018   7.476  0.1446 -0.0673  0.1011
    1W        W63456  11.686  24.615   0.876  0.0987 -0.1740 -0.1169
    1W        W63457   7.203  14.145   1.970  0.0462  0.2444 -0.0302
    1W        W63458  10.307  20.486   1.795 -0.0997  0.3985  0.3030
    1W        W63459  17.647  19.192   1.731 -0.0990  0.1373  0.0903
    1W        W63460  28.992  18.526   1.152 -0.0204  0.1386 -0.0894
    1W        W63461  18.823  24.429   8.055 -0.2372  0.1303 -0.0160
    1W        W63462  14.509  15.368   8.998 -0.2619  0.1278 -0.2433
    1W        W63463  24.123  29.181   0.219 -0.1071  0.0243 -0.0628
    1W        W63464  13.543  29.565   7.548 -0.1854 -0.1381 -0.2244
    1W        W63465   5.717  11.999   8.471  0.2691 -0.1939  0.1057
    1W        W63466  16.636  15.483   0.435  0.0557  0.1690  0.0980
    1W        W63467   7.828  22.926   7.986  0.1904 -0.2262  0.1594
    1W        W63468  20.479  19.405   2.144  0.0652  0.1212  0.3136
    1W        W63469   7.891   3.902   2.904  0.0446 -0.0959 -0.1759
    1W        W63470  20.082  18.220   8.045  0.1551  0.0708  0.0467
    1W        W63471   4.715   6.119   7.149  0.1480 -0.1157 -0.0916
    1W        W63472  10.664   5.262   3.113 -0.2943  0.1031 -0.1219
    1W        W63473   3.626   4.516   2.831  0.1030 -0.1112 -0.0663
    1W        W63474  22.143  26.779   0.775  0.1393 -0.0598  0.4600
    1W        W63475  23.252  25.130   1.563 -0.1116 -0.0084  0.0730
    1W        W63476  18.238  29.763   9.356 -0.3187  0.2133 -0.1695
    1W        W63477   6.092   1.482   7.305 -0.2484 -0.1190  0.1520
    1W        W63478   2.472   4.868   6.845 -0.1175 -0.3080  0.1206
    1W        W63479  26.234   5.946   2.004 -0.0608  0.0517  0.1623
    1W        W63480  13.479  10.619   0.046 -0.0861  0.0041 -0.0560
    1W        W63481   7.466  21.986   9.131 -0.1114 -0.0556  0.0754
    1W        W63482  18.053  28.910   0.227 -0.4516  0.0247  0.0147
    1W        W63483   4.974  28.508   6.488  0.0209  0.1956 -0.0159
    1W        W63484  21.291   0.269   7.921 -0.1693 -0.0295  0.0778
    1W        W63485  17.902  15.557   6.404 -0.1614  0.1758  0.3973
    1W        W63486  21.245  16.680   1.431  0.0524  0.0484  0.1568
    1W        W63487   2.105  11.079   1.488 -0.2092  0.1004 -0.2041
    1W        W63488  19.613  27.749   1.046 -0.1850 -0.0712 -0.0399
    1W        W63489  12.009  18.759   6.853 -0.1028  0.0329 -0.2100
    1W        W63490  26.167  29.394   3.063 -0.1330 -0.0375 -0.1654
    1W        W63491  29.731  24.218   8.610  0.2426 -0.1013  0.1996
    1W        W63492  17.017  23.317   7.553  0.0259 -0.1377 -0.1648
    1W        W63493  20.765  29.032   1.927  0.1116 -0.1851  0.1342
    1W        W63494  12.301   9.586   2.452 -0.2413  0.0122  0.1825
    1W        W63495  22.486  29.473   1.558 -0.0996 -0.1163  0.3338
    1W        W63496   8.750  22.353   1.399  0.0442 -0.1835  0.2449
    1W        W63497  20.527   7.105   7.371  0.0970 -0.5020 -0.0597
    1W        W63498  25.186  18.079   7.612 -0.1076 -0.2871  0.0166
    1W        W63499   2.932   8.257   7.238 -0.1248 -0.1218 -0.0203
    1W        W63500   2.287  15.736   1.020  0.0730 -0.0073  0.1973
    1W        W63501  13.421   5.172   2.058  0.4581  0.1721 -0.1363
    1W        W63502  16.204  12.176   2.793  0.1771  0.1291 -0.3646
    1W        W63503  10.572   8.683   9.145 -0.0084 -0.3916  0.3078
    1W        W63504   1.123  20.312   1.031 -0.0981 -0.0161  0.1745
    1W        W63505  13.421  26.907   6.841  0.1023  0.0719 -0.2235
    1W        W63506  26.427  19.721   0.380  0.0042  0.4829  0.0318
    1W        W63507   9.540  14.462   1.373  0.2582 -0.0094  0.1134
    1W        W63508   1.250  13.769   7.883  0.1620  0.1435  0.1844
    1W        W63509  29.098   7.173   1.871  0.0552 -0.0542 -0.0820
    1W        W63510  11.643   0.787   8.097  0.1401  0.1362 -0.1366
    1W        W63511  12.912   1.155   0.990  0.0979 -0.0238  0.0439
    1W        W63512   0.475  19.110   0.285  0.1555 -0.2162  0.3236
    1W        W63513   4.448  19.459   7.119  0.0702 -0.0014  0.0322
    1W        W63514  20.475  29.107   8.522 -0.2993 -0.2453  0.0817
    1W        W63515  12.792  24.529   1.032 -0.2982  0.0805  0.1795
    1W        W63516  21.320  23.455   7.401  0.0838 -0.0254 -0.0653
    1W        W63517  22.305   3.522   8.362 -0.3441  0.1130  0.2765
    1W        W63518  11.236  28.922   9.438  0.2352  0.0329  0.0352
    1W        W63519  12.777   0.527   7.541  0.0490  0.3581 -0.0154
    1W        W63520  21.662  15.164   7.550  0.0052 -0.0935 -0.0987
    1W        W63521  26.514   6.959   8.374 -0.1583 -0.1297 -0.2577
    1W        W63522   6.205   8.711   9.392  0.1092 -0.0356 -0.0697
    1W        W63523   1.531  22.988   6.614  0.0233 -0.0145  0.1501
    1W        W63524  25.202  18.528   8.048 -0.2007  0.0434  0.0760
    1W        W63525  18.320  14.061   7.418 -0.0229 -0.0036  0.0312
    1W        W63526   0.589  11.618   2.404 -0.3078  0.0501  0.0100
    1W        W63527  21.870   5.808   8.165  0.1110 -0.0077  0.1545
    1W        W63528   2.784  20.986   0.076 -0.1762  0.2913  0.3227
    1W        W63529  19.722   1.955   8.418 -0.1160 -0.0495 -0.1114
    1W        W63530  18.094  27.551   8.962  0.1023 -0.1955 -0.2143
    1W        W63531  16.407  21.137   7.402 -0.0805 -0.0422 -0.0317
    1W        W63532  10.606  20.472   8.910 -0.1602  0.4026  0.1614
    1W        W63533  14.637  12.779   8.656  0.0353 -0.2088 -0.0642
    1W        W63534   9.865  20.949   6.801 -0.1782  0.2771  0.2426
    1W        W63535   4.783   0.138   9.076  0.0508 -0.0652  0.3200
    1W        W63536  19.412  28.072   9.046  0.1211  0.0402 -0.1127
    1W        W63537  20.801  16.567   0.416 -0.0865  0.2553 -0.1957
    1W        W63538   0.794  26.040   5.850  0.3224  0.3504  0.2135
    1W        W63539  22.818   5.178   8.570 -0.0497  0.2449 -0.2235
    1W        W63540  17.400  26.308   1.908 -0.0966  0.0903  0.2511
    1W        W63541  28.841  27.538   6.926 -0.0650  0.2854  0.1211
    1W        W63542  16.699   8.759   9.028  0.2115  0.0865 -0.3832
    1W        W63543  26.272  12.018   1.595 -0.1340  0.0421 -0.1618
    1W        W63544   8.337   4.003   8.089 -0.1272 -0.1595  0.5520
    1W        W63545  23.841  28.210   2.509 -0.0310 -0.0501  0.2858
    1W        W63546  28.799  12.723   8.052  0.2324 -0.1288 -0.3678
    1W        W63547   2.949  20.961   0.607 -0.1353  0.0795 -0.0802
    1W        W63548  20.355  28.029   9.116 -0.1130  0.2577 -0.1804
    1W        W63549   6.296  13.253   7.452  0.0361 -0.2358  0.2429
    1W        W63550   5.053  11.860   9.257 -0.3684 -0.3963 -0.0142
    1W        W63551   4.730   1.969   9.305  0.2762 -0.0828  0.0671
    1W        W63552  25.564  17.077   8.892 -0.0870 -0.0165 -0.1482
    1W        W63553  27.979  12.314   0.220  0.2051  0.0125 -0.3169
    1W        W63554  28.471  21.903   8.100  0.1269  0.1677  0.0920
    1W        W63555  28.722  13.237   1.438 -0.1338 -0.0068  0.0129
    1W        W63556  15.366   1.640   8.901 -0.1480  0.0597 -0.1051
    1W        W63557  28.401  25.139   7.660 -0.0192  0.3894 -0.0079
    1W        W63558   0.668  14.807   1.139 -0.0268 -0.1082  0.2722
    1W        W63559   7.943  22.180   7.502  0.1975 -0.2291  0.1214
    1W        W63560   8.676  27.373   9.418 -0.0929 -0.1440 -0.1210
    1W        W63561   8.784  15.629   1.531 -0.1732  0.0895  0.1432
    1W        W63562  21.968  22.619   7.327  0.1580 -0.3357  0.1033
    1W        W63563  26.990  18.643   2.820  0.0999  0.2378 -0.2816
    1W        W63564   8.705  17.105   7.486 -0.2261 -0.3791 -0.3340
    1W        W63565  18.519   5.280   1.940  0.0614 -0.0252  0.1398
    1W        W63566   9.160   5.953   8.072  0.2212  0.1004 -0.2041
    1W        W63567  16.527   4.567   0.057 -0.1563  0.2890  0.2339
    1W        W63568  14.488   0.811   3.558  0.0542  0.2128 -0.1770
    1W        W63569  28.855  14.716   9.412  0.2724  0.0045 -0.0882
    1W        W63570  22.709  29.552   0.686 -0.1156  0.2052 -0.0063
    1W        W63571  16.724   4.440   1.528 -0.1145 -0.2685 -0.0122
    1W        W63572   8.868   0.080   8.080  0.3014 -0.0220 -0.1908
    1W        W63573  15.041  14.154   0.986 -0.0115  0.1027  0.0921
    1W        W63574   5.581  12.436   8.787 -0.0465  0.1489  0.0612
    1W        W63575  14.896  13.716   1.228 -0.2249 -0.2048 -0.0654
    1W        W63576   3.347   5.142   1.204  0.0810 -0.0572  0.1365
    1W        W63577   0.805  20.125   0.687  0.0301  0.0638 -0.4434
    1W        W63578   5.775   1.053   7.423 -0.0920  0.0696 -0.3339
    1W        W63579   0.335  13.703   0.377  0.3326 -0.0574  0.1050
    1W        W63580  11.550   4.851   1.617  0.0643 -0.0964 -0.1573
    1W        W63581   9.947   7.207   0.989  0.0516 -0.0700  0.0650
    1W        W63582  27.582  21.988   7.760  0.0104 -0.2685  0.0519
    1W        W63583  22.588   8.352   9.344  0.2620 -0.1486 -0.1543
    1W        W63584  26.187  27.362   3.261  0.2210 -0.1135 -0.0388
    1W        W63585   4.157   2.817   2.647  0.1733  0.4387 -0.3005
    1W        W63586   9.532  22.770   0.741 -0.1996  0.0704 -0.2322
    1W        W63587  18.916   7.002   0.290 -0.1151 -0.0743  0.1875
    1W        W63588   2.239   8.492   7.682 -0.1068  0.0853 -0.4585
    1W        W63589   8.670   1.194   2.799  0.3149 -0.1933 -0.5238
    1W        W63590   9.501  10.466   9.231  0.1271 -0.3470 -0.0327
    1W        W63591  12.655  25.792   0.960 -0.0392  0.0159  0.1273
    1W        W63592   6.623  28.857   2.015  0.1627  0.1582  0.2406
    1W        W63593  12.479  23.470   8.688 -0.1606  0.0205  0.0935
    1W        W63594   3.789  27.090   1.198  0.0988  0.0915 -0.0955
    1W        W63595  16.572   3.665   8.817 -0.0999 -0.0705 -0.1843
    1W        W63596   7.145   9.761   4.047 -0.1956  0.2747 -0.0761
    1W        W63597  18.165   6.132   9.421  0.3109 -0.1389  0.0507
    1W        W63598  10.808  16.275   8.687 -0.0503 -0.1884 -0.1062
    1W        W63599   6.504  13.957   0.453  0.2096 -0.1210  0.0906
    1W        W63600  24.280   0.280   7.328 -0.0555  0.0341  0.0666
    1W        W63601  15.550  16.591   7.597 -0.1236  0.2682  0.0469
    1W        W63602  17.775   0.450   3.765 -0.0132  0.1909 -0.1046
    1W        W63603   1.760  16.311   0.123 -0.0723  0.1064  0.3156
    1W        W63604   7.273  28.690   8.567  0.1523  0.0766  0.0687
    1W        W63605   8.076   0.276   1.760 -0.0326  0.1798  0.1976
    1W        W63606  16.938  29.609   2.200  0.0060 -0.1065  0.0943
    1W        W63607  15.684  23.165   9.348 -0.0590  0.2693  0.1162
    1W        W63608  29.250  29.639   2.497  0.1145  0.3037 -0.4103
    1W        W63609  21.992  29.501   1.334 -0.1764  0.0764 -0.0849
    1W        W63610  29.611   2.421   1.303 -0.0135 -0.2783 -0.1218
    1W        W63611  24.506  27.454   2.834  0.1519  0.2246 -0.1780
    1W        W63612   5.785   1.053   2.681  0.0477 -0.3451 -0.0427
    1W        W63613  12.156  24.151   7.027 -0.1177 -0.1416  0.1829
    1W        W63614   0.151  15.485   0.543 -0.0480  0.0897 -0.1017
    1W        W63615  29.472   2.266   7.803 -0.2264 -0.3173  0.1852
    1W        W63616  23.199  11.106   1.511 -0.0780  0.2731 -0.0879
    1W        W63617   6.660   3.002   2.156  0.1795 -0.0541  0.1272
    1W        W63618  25.571  16.160   8.849 -0.0171 -0.1327 -0.2175
    1W        W63619   8.358   6.546   2.852 -0.0113 -0.1167  0.1059
    1W        W63620  14.138  28.969   0.272  0.1709  0.0355  0.0595
    1W        W63621  28.903  25.588   9.200 -0.1112 -0.1893  0.4367
    1W        W63622  18.523  16.618   8.710  0.0994  0.0778  0.0658
    1W        W63623  18.799  14.289   2.135 -0.0072  0.1504 -0.1282
    1W        W63624   9.218  27.209   9.423  0.3071 -0.1529  0.1422
    1W        W63625   0.928   2.321   7.453  0.0048 -0.1049 -0.0575
    1W        W63626  28.619   6.368   2.089  0.1855  0.0894  0.1826
    1W        W63627   8.481   3.133   7.238 -0.4578  0.2568 -0.0165
    1W        W63628  11.582  26.697   0.715 -0.0019  0.1279 -0.0757
    1W        W63629  12.490  18.090   0.376  0.1335 -0.0394 -0.1349
    1W        W63630   0.641   8.573   0.407 -0.0239 -0.0253  0.3910
    1W        W63631   5.123  11.216   0.411  0.0256  0.3674  0.3702
    1W        W63632   4.794   9.881   9.263  0.1388 -0.1961 -0.3609
    1W        W63633  21.855   3.075   7.664  0.0975  0.0341 -0.0013
    1W        W63634   8.203  10.020   0.288 -0.1508  0.0368 -0.1952
    1W        W63635  28.956   1.005   7.567 -0.0782  0.1986 -0.0243
    1W        W63636  23.830   8.766   7.671 -0.3397  0.2357  0.2107
    1W        W63637   6.202   1.173   1.322 -0.0938 -0.0704  0.0132
    1W        W63638  26.427  10.483   8.853  0.0312 -0.0269  0.0456
    1W        W63639  29.785   5.473   1.113  0.0566  0.0292 -0.0924
    1W        W63640  28.697   8.735   7.221  0.0116 -0.0282 -0.2666
    1W        W63641  24.653   2.366   1.044 -0.2786  0.0104 -0.0525
    1W        W63642   5.280  18.633   0.789  0.2344 -0.1946  0.3756
    1W        W63643   6.526  10.096   8.955  0.1002  0.0471 -0.0149
    1W        W63644   7.073  21.768   8.457 -0.1809 -0.0942  0.1129
    1W        W63645   9.544   7.514   0.873  0.0496  0.0300  0.2028
    1W        W63646   4.387   3.706   1.219  0.2139  0.1220 -0.0327
    1W        W63647  21.105  28.134   2.812  0.0969  0.3013  0.0816
    1W        W63648   0.581   9.870   8.459 -0.1427  0.2339 -0.1331
    1W        W63649  25.930  11.490   0.262 -0.0560  0.0571 -0.0885
    1W        W63650   5.460  10.754   8.581  0.1963  0.0724 -0.0890
    1W        W63651  26.114  20.526   3.190  0.2383  0.0383 -0.0349
    1W        W63652  26.200   5.594   7.811 -0.1163 -0.0211 -0.1808
    1W        W63653  22.250   6.487   0.845 -0.0221 -0.2638  0.0397
    1W        W63654   7.764   0.076   2.065  0.1892  0.0732 -0.3528
    1W        W63655   4.502  20.176   0.376 -0.0001 -0.1415  0.4477
    1W        W63656   1.051  26.120   7.282  0.2049  0.2838  0.0459
    1W        W63657   8.895  29.482   7.687  0.2531 -0.2147 -0.0321
    1W        W63658  14.529  17.336   7.031  0.0487 -0.1734  0.0186
    1W        W63659  29.472  23.891   0.700  0.0314 -0.0720  0.4017
    1W        W63660   2.890  23.062   8.890  0.1893  0.2461  0.0713
    1W        W63661  15.153  20.600   1.312  0.4696  0.1074 -0.3122
    1W        W63662  25.224   5.373   3.432  0.0652 -0.0075 -0.2017
    1W        W63663  14.919  16.709   1.528 -0.1885  0.1435  0.3758
    1W        W63664  19.375   6.619   9.315 -0.1654  0.0516  0.2851
    1W        W63665  17.412   4.145   9.224  0.1688 -0.0679  0.0612
    1W        W63666  23.367  23.286   0.794 -0.0411 -0.1908 -0.0867
    1W        W63667  22.339  17.950   9.280  0.2750 -0.0868 -0.2329
    1W        W63668   3.967  23.491   7.981  0.0090  0.0591  0.1881
    1W        W63669  24.883  24.908   7.443  0.3101  0.0655  0.0134
    1W        W63670  24.566  26.334   8.147 -0.0258 -0.2923  0.0479
    1W        W63671   4.221  29.728   0.854 -0.1079 -0.0090  0.3940
    1W        W63672  24.461   9.030   0.720 -0.0912  0.0531 -0.0624
    1W        W63673   4.937   9.458   8.550 -0.0161 -0.0452  0.0902
    1W        W63674  14.969   2.843   0.005  0.1751 -0.0725 -0.0569
    1W        W63675  26.433  14.777   8.622  0.1513 -0.1264  0.1206
    1W        W63676   4.983  21.456   9.240  0.1331 -0.3536  0.0838
    1W        W63677  25.370   8.860   8.421 -0.0666  0.4388  0.2167
    1W        W63678  26.730  20.034   7.538  0.0124  0.1016 -0.0468
    1W        W63679  14.916  14.891   1.792  0.3237 -0.1444 -0.0482
    1W        W63680  19.052   0.776   7.951 -0.0435 -0.3025 -0.1323
    1W        W63681   1.188  24.190   8.833 -0.3105 -0.2201  0.0578
    1W        W63682  18.386  14.049   0.923  0.1792 -0.3180  0.0504
    1W        W63683  28.010  10.368   1.556 -0.2905 -0.0471 -0.0609
    1W        W63684  19.492   4.117   6.208  0.1689 -0.1288 -0.0266
    1W        W63685  26.021   6.631   7.796  0.2721  0.3179 -0.1365
    1W        W63686  17.314  14.638   8.360 -0.0167  0.0305 -0.0436
    1W        W63687   4.543  22.482   0.167 -0.0562 -0.0425  0.2196
    1W        W63688  22.652   0.607   1.623 -0.1605  0.0208  0.0577
    1W        W63689  25.484  25.795   0.637 -0.0349 -0.1038 -0.1653
    1W        W63690   7.209   8.835   9.350  0.0144  0.0486  0.2960
    1W        W63691   0.172  21.901   5.898  0.0217  0.0324  0.3815
    1W        W63692   5.838  19.597   7.074 -0.0778 -0.2789 -0.0111
    1W        W63693   3.907  10.496   3.004  0.0479 -0.1299  0.4864
    1W        W63694  29.052  27.076   8.378  0.1190 -0.0383 -0.2108
    1W        W63695   6.914   2.088   1.894  0.0109  0.4305  0.1645
    1W        W63696  21.123  19.987   1.435 -0.0279  0.0574  0.0270
    1W        W63697   4.223   7.150   0.880 -0.2453  0.0849 -0.0111
    1W        W63698  29.042  11.510   0.478 -0.1927 -0.2167 -0.2204
    1W        W63699  27.809  15.535   2.466  0.0411 -0.0529 -0.1949
    1W        W63700  25.213  26.682   0.078 -0.1905 -0.0333  0.1416
    1W        W63701  27.282  20.177   0.242 -0.1101  0.0530  0.2499
    1W        W63702  21.056  24.004   8.250 -0.1586 -0.0086  0.2653
    1W        W63703  26.078  15.622   8.011 -0.0026 -0.0586  0.0948
    1W        W63704  13.376  17.176   2.485 -0.2282 -0.0406 -0.1522
    1W        W63705  25.913  15.353   7.121  0.1503  0.3650 -0.0927
    1W        W63706  27.276  25.972   7.685  0.0271  0.1607 -0.0460
    1W        W63707   6.990   5.429   1.500  0.0259 -0.1823 -0.1244
    1W        W63708  17.054  22.232   2.142 -0.0218 -0.0143  0.1248
    1W        W63709  24.242  21.617   8.074 -0.0799  0.2036  0.0952
    1W        W63710  11.747   8.602   9.020 -0.0687  0.1416  0.0338
    1W        W63711   9.111  10.112   9.347  0.3357  0.1575 -0.1729
    1W        W63712   0.475  21.472   8.080  0.1801 -0.0628 -0.0328
    1W        W63713   0.267  27.412   9.388  0.1802 -0.0783 -0.0082
    1W        W63714  15.715  27.270   8.691 -0.1890 -0.0763 -0.1423
    1W        W63715  19.407  15.405   7.254  0.2383 -0.1248  0.1731
    1W        W63716  23.684  15.735   8.355  0.0339  0.0527 -0.2669
    1W        W63717   0.439  16.013   1.964 -0.0759 -0.0964  0.0198
    1W        W63718  29.519   2.130   8.301 -0.3327  0.1193 -0.0683
    1W        W63719   5.191   5.743   0.305 -0.0962 -0.1612 -0.0915
    1W        W63720  16.337  11.076   7.486  0.0966 -0.1649 -0.2976
    1W        W63721  28.635   1.215   7.982  0.2098  0.1065  0.1772
    1W        W63722  14.123   9.862   2.205  0.1457 -0.2055 -0.1736
    1W        W63723  25.368   4.767   6.927  0.2665  0.1168  0.0619
    1W        W63724   6.996  11.358   2.837 -0.0042 -0.1103  0.0123
    1W        W63725  20.623  13.587   7.515  0.3702  0.1259 -0.1874
    1W        W63726   1.972   6.640   0.080  0.4684  0.0532  0.1256
    1W        W63727   4.228   0.522   8.006  0.0880  0.3080 -0.0108
    1W        W63728  24.278   3.656   8.082 -0.1823 -0.1507 -0.2457
    1W        W63729   8.010   6.482   0.364  0.1674 -0.2250 -0.4061
    1W        W63730  24.907   1.460   8.235  0.0360  0.1895 -0.2538
    1W        W63731  20.385   2.184   7.199  0.0777  0.2239  0.2272
    1W        W63732  29.773  19.804   5.766  0.1027  0.0235  0.0132
    1W        W63733   0.783  11.886   9.139  0.0173  0.1098  0.0817
    1W        W63734  27.464  22.041   1.824 -0.0048 -0.0730  0.3053
    1W        W63735  28.778  22.913   8.803  0.0997 -0.0647  0.0500
    1W        W63736  12.477  19.919   0.175  0.3610 -0.0731 -0.0100
    1W        W63737  13.667  28.630   1.795  0.2528 -0.1307  0.3029
    1W        W63738  15.568  23.942   2.358  0.0172 -0.0223  0.0757
    1W        W63739  17.458  17.995   8.922  0.1856 -0.2832  0.0595
    1W        W63740  21.145  28.415   8.397  0.1736  0.0339 -0.2369
    1W        W63741  11.361   2.482   7.333  0.2108 -0.0545 -0.3133
    1W        W63742  21.870  13.884   2.205 -0.3536  0.1066 -0.0201
    1W        W63743  28.327   1.830   0.479 -0.2118 -0.1354  0.3879
    1W        W63744  19.072  13.854   2.050  0.1775  0.1538 -0.3667
    1W        W63745   9.317   9.664   1.841  0.0448  0.1048  0.2989
    1W        W63746  12.279  22.326   8.086  0.0108  0.1132 -0.0837
    1W        W63747   6.587   4.699   8.498  0.1126 -0.0213  0.2749
    1W        W63748   6.693   5.244   7.792  0.4230  0.0502 -0.0750
    1W        W63749   4.220  27.281   8.022  0.3311 -0.1458 -0.2426
    1W        W63750  22.896  23.485   7.608  0.1247 -0.0598  0.0394
    1W        W63751  29.185   7.938   7.130 -0.2878  0.1483  0.0494
    1W        W63752  15.982  10.254   1.222 -0.1089 -0.1224  0.2662
    1W        W63753   4.554  18.161   2.238  0.0195  0.1757 -0.1314
    1W        W63754  15.437   7.488   6.435  0.1470  0.1999  0.1683
    1W        W63755  23.091  29.480   1.575  0.0369 -0.0046 -0.0791
    1W        W63756  29.385  29.292   0.377  0.0988 -0.2306  0.3725
    1W        W63757   0.807  22.019   1.064  0.3922  0.2130  0.1520
    1W        W63758  28.377  29.709   0.787 -0.0424 -0.1037 -0.0121
    1W        W63759  20.542   0.394   8.535 -0.3064 -0.0404  0.0619
    1W        W63760  23.401  13.823   8.648  0.1063  0.1496  0.0557
    1W        W63761   5.683   1.529   1.549 -0.1738 -0.4199 -0.0163
    1W        W63762  17.594  21.518   9.313 -0.0531  0.0343  0.2900
    1W        W63763   8.910  18.049   2.244  0.0784 -0.4053 -0.0187
    1W        W63764  23.297  17.321   8.958  0.0928 -0.0350 -0.1318
    1W        W63765   0.004  13.253   8.735  0.0247 -0.0950 -0.1296
    1W        W63766   1.813  13.913   8.790 -0.0586 -0.0313  0.1193
    1W        W63767   5.826  25.330   8.463  0.0743 -0.3568  0.0682
    1W        W63768  24.287   6.523   0.012 -0.0543  0.2226 -0.1683
    1W        W63769  13.321  26.395   6.744 -0.0594 -0.0824 -0.0185
    1W        W63770  15.179  23.882   9.438  0.2137  0.1418 -0.1258
    1W        W63771   3.995   7.911   7.873 -0.1079  0.0321 -0.1348
    1W        W63772   4.442  22.221   6.697  0.0687 -0.2170 -0.0915
    1W        W63773  20.624  17.797   7.221 -0.0013 -0.2483  0.1527
    1W        W63774  11.205   7.862   8.919 -0.0674  0.1114  0.0537
    1W        W63775  20.806   4.032   2.100 -0.0179 -0.0209  0.0884
    1W        W63776   9.578   2.473   3.207 -0.0564  0.0151  0.2394
    1W        W63777   4.451   4.239   3.457  0.0361 -0.1536  0.1634
    1W        W63778  20.787   8.440   1.437  0.0824  0.0443  0.0263
    1W        W63779   0.567  20.718   8.217 -0.1127 -0.1694  0.1908
    1W        W63780  24.905  10.943   6.068 -0.0132 -0.1259  0.0505
    1W        W63781  21.176   3.924   7.358  0.0442 -0.2365  0.0490
    1W        W63782  17.606   5.339   1.387 -0.1915 -0.3017 -0.0954
    1W        W63783  28.479  10.862   8.657  0.0183  0.1096 -0.4217
    1W        W63784   7.740   6.498   2.156  0.1729  0.2060  0.0125
    1W        W63785   3.442   7.676   7.765  0.1376  0.0120 -0.0748
    1W        W63786  19.619  18.063   1.944 -0.0379 -0.0084 -0.1515
    1W        W63787  20.793  24.941   1.873  0.0662 -0.0067 -0.0715
    1W        W63788  11.941  20.725   1.952  0.0391 -0.0189  0.1895
    1W        W63789  22.965  11.934   6.448  0.1429 -0.1106  0.0119
    1W        W63790  18.512  23.601   2.764 -0.1682 -0.2818 -0.1504
    1W        W63791  21.715   2.568   8.516  0.0435  0.1136  0.0038
    1W        W63792  17.495   5.707   2.231  0.1925 -0.2021 -0.3585
    1W        W63793  25.684  23.168   1.855 -0.0294 -0.0562 -0.0481
    1W        W63794   4.898  19.717   0.892  0.1599  0.0766 -0.2106
    1W        W63795  12.027  15.916   8.586  0.1692 -0.0688 -0.0864
    1W        W63796   1.783   5.745   7.790 -0.0167  0.4472 -0.0355
    1W        W63797   2.420  19.134   1.647  0.0810 -0.2486 -0.1117
    1W        W63798  21.055  16.520   0.888  0.1614 -0.1938  0.1198
    1W        W63799  16.393  23.757   2.978 -0.1008 -0.1949 -0.0683
    1W        W63800  13.572   4.197   6.729 -0.1309  0.0186 -0.1635
    1W        W63801  23.952  19.760   1.827  0.2043  0.0825  0.0467
    1W        W63802  28.939  21.005   6.972 -0.1886 -0.2318  0.2305
    1W        W63803   9.089  10.953   0.800  0.0175 -0.1423  0.0199
    1W        W63804  27.050   3.994   9.314  0.0523 -0.0224  0.2042
    1W        W63805  28.920   0.012   0.905 -0.1370  0.0816 -0.0806
    1W        W63806   8.895  18.975   0.946  0.0170  0.2019  0.1844
    1W        W63807  27.653  11.320   7.963  0.0585 -0.2026 -0.1821
    1W        W63808  23.923   9.643   6.574  0.1320  0.3234  0.6266
    1W        W63809  17.948   8.195   2.571  0.1594  0.3404  0.1273
    1W        W63810   9.841  23.961   9.349 -0.2728 -0.0264 -0.0864
    1W        W63811  17.293  25.663   9.133  0.1251  0.2731  0.1779
    1W        W63812  18.588   0.300   7.327 -0.0542 -0.2293  0.0262
    1W        W63813  14.024  12.725   7.864  0.2657  0.2183 -0.3214
    1W        W63814  29.702  23.232   7.276 -0.0650 -0.1038  0.2073
    1W        W63815  23.921  21.608   6.555 -0.3012  0.0093 -0.1373
    1W        W63816  25.234   7.343   1.733  0.1920  0.0992  0.2293
    1W        W63817   6.058  18.593   0.235  0.2775 -0.1591  0.1197
    1W        W63818   6.904   8.467   8.321 -0.2876 -0.0642  0.3056
    1W        W63819  12.253   0.791   7.459  0.0139 -0.0662  0.0714
    1W        W63820   2.206   4.219   2.081  0.0195 -0.1956 -0.3755
    1W        W63821   8.803  29.026   7.439 -0.0055 -0.0515 -0.3255
    1W        W63822  21.508   9.943   5.750 -0.2947 -0.3441  0.0569
    1W        W63823   2.310   1.966   6.659 -0.1548  0.1046 -0.0780
    1W        W63824  21.498  18.893   7.980 -0.2682 -0.0760 -0.1513
    1W        W63825  25.111   9.222   6.723  0.0214 -0.1666  0.3135
    1W        W63826   9.064  15.266   7.358 -0.0835 -0.1436 -0.1135
    1W        W63827   1.587   2.645   7.769 -0.2109  0.3233 -0.1254
    1W        W63828  17.587  17.839   8.001  0.0474  0.0668  0.2414
    1W        W63829  19.357   0.289   0.593 -0.0035  0.1179 -0.1919
    1W        W63830  14.351   4.542   1.733 -0.1346  0.3232  0.1451
    1W        W63831  22.470  24.035   2.586 -0.2044  0.1353  0.0700
    1W        W63832  27.239   9.662   7.440  0.1115  0.1405 -0.0856
    1W        W63833  13.739  14.476   1.922  0.0625 -0.0521 -0.5860
    1W        W63834  18.829  10.713   6.291  0.2407  0.1264  0.2663
    1W        W63835  13.197  16.662   7.925  0.1624 -0.2089 -0.0005
    1W        W63836   6.192  16.400   7.822 -0.0333  0.0094  0.2230
    1W        W63837  19.186  17.906   1.872  0.2085 -0.0652  0.0775
    1W        W63838  20.589  18.000   8.143 -0.1581 -0.1401 -0.1290
    1W        W63839  27.158  11.193   7.030  0.0913 -0.1325 -0.1750
    1W        W63840  13.441  17.929   1.794 -0.2356  0.0665 -0.0623
    1W        W63841   3.055  28.651   2.443 -0.0885 -0.1733 -0.0317
    1W        W63842  22.804   3.681   2.925  0.1873 -0.2259  0.1666
    1W        W63843   0.076  12.528   7.089  0.3699  0.0797  0.0558
    1W        W63844  12.067   9.963   2.117 -0.0332 -0.0762 -0.4263
    1W        W63845  18.699  24.882   8.583 -0.0440  0.0263  0.0442
    1W        W63846  16.061  18.097   2.457 -0.1249  0.4277  0.1408
    1W        W63847  21.927   7.455   6.902  0.0085  0.3158  0.0429
    1W        W63848  12.333  26.862   9.362  0.2299 -0.0526  0.0484
    1W        W63849  17.528  15.084   0.124 -0.0169  0.0328  0.3235
    1W        W63850  12.630  29.789   8.762 -0.0996  0.2375  0.3205
    1W        W63851  26.749  19.334   6.220 -0.0594  0.0376 -0.1362
    1W        W63852  11.510  17.583   7.635 -0.0713  0.1408 -0.3200
    1W        W63853   8.889  15.837   9.413  0.1859 -0.0458 -0.0760
    1W        W63854  16.221  29.189   8.992 -0.1027  0.0177 -0.4070
    1W        W63855  15.565  22.827   1.613 -0.3415 -0.0262 -0.2093
    1W        W63856  17.873  28.114   2.174  0.0942 -0.0952  0.0707
    1W        W63857  27.429  12.832   7.885 -0.1541 -0.0208 -0.0507
    1W        W63858   3.705   5.071   0.868 -0.1904  0.2309  0.1002
    1W        W63859  13.370   6.304   8.546 -0.1748  0.3825  0.0562
    1W        W63860  14.632   1.132   1.506  0.1874 -0.0746  0.1951
    1W        W63861  29.030  29.605   1.652 -0.0416  0.1569 -0.3760
    1W        W63862  24.110  24.412   8.561  0.0321 -0.1350 -0.2352
    1W        W63863  23.568  15.530   1.469  0.1657  0.0777  0.1525
    1W        W63864  29.482   1.728   0.819  0.1240 -0.0805  0.1553
    1W        W63865  25.064   8.540   1.837  0.1548  0.3317 -0.0643
    1W        W63866  21.685  22.959   8.343  0.1117 -0.3733 -0.0063
    1W        W63867  26.734  25.470   9.127  0.0892 -0.0415  0.2678
    1W        W63868  28.346  18.017   2.625  0.0711  0.3749  0.0976
    1W        W63869  20.874  10.657   1.324  0.3706  0.1840  0.2469
    1W        W63870  27.753   8.439   1.273 -0.1643 -0.2015  0.1922
    1W        W63871  14.294  21.810   2.600 -0.5386  0.1127  0.2799
    1W        W63872  15.499  18.291   0.759  0.0682 -0.0794 -0.0641
    1W        W63873   8.810  12.066   2.759 -0.0159  0.1711 -0.1356
    1W        W63874   6.157  19.797   7.443  0.2173  0.0163 -0.0084
    1W        W63875  22.568  23.889   8.000 -0.0394  0.0761  0.0274
    1W        W63876  15.671   0.403   7.554  0.0182 -0.2128  0.0596
    1W        W63877   5.693  18.686   6.120  0.2880  0.3755  0.0265
    1W        W63878  11.930   1.717   7.638  0.2168  0.3100  0.3126
    1W        W63879  24.971  15.184   9.299  0.2707 -0.3051 -0.2555
    1W        W63880  13.502   5.291   7.127 -0.1119 -0.1034 -0.1569
    1W        W63881   8.566  26.867   1.210 -0.1604 -0.0792  0.2197
    1W        W63882  28.311  24.215   2.006  0.4429 -0.0658  0.0680
    1W        W63883  15.628  29.540   2.772  0.0302  0.0757 -0.0319
    1W        W63884  17.179  16.177   0.311 -0.2325 -0.1807  0.0298
    1W        W63885  13.515   3.464   2.584  0.0178 -0.2259 -0.5496
    1W        W63886   1.874  23.233   8.977  0.0082  0.1255  0.1713
    1W        W63887   7.880  26.905   1.804  0.2788  0.3498 -0.2072
    1W        W63888   2.836  14.982   8.518  0.0965  0.0301 -0.0485
    1W        W63889  21.961  12.352   1.765 -0.0102 -0.1840  0.0037
    1W        W63890  13.869   0.123   0.628  0.1141  0.2375 -0.2255
    1W        W63891  27.535  26.273   9.351 -0.0818 -0.3705 -0.1733
    1W        W63892   7.776   8.259   2.074 -0.2812  0.0521  0.0240
    1W        W63893  16.516  10.160   8.654  0.2002  0.1624 -0.0102
    1W        W63894   2.020  24.508   8.600  0.0699 -0.2523 -0.3503
    1W        W63895  23.128   7.908   7.959 -0.1368  0.0270 -0.0844
    1W        W63896  18.575  15.429   1.492  0.3511  0.1119  0.1139
    1W        W63897  24.839   1.093   2.892 -0.3306  0.1432 -0.0621
    1W        W63898  15.932  16.995   0.619  0.1595 -0.2263 -0.0120
    1W        W63899  13.479   5.478   7.606  0.0465  0.0093  0.1052
    1W        W63900   7.377   0.125   2.420 -0.2855 -0.0512 -0.0281
    1W        W63901  29.675   8.556   0.230  0.2258  0.0283  0.3466
    1W        W63902  16.287  18.509   6.573 -0.0190  0.2140 -0.4321
    1W        W63903  17.121  15.147   7.277 -0.3090  0.1461  0.0405
    1W        W63904  11.434  16.195   7.337 -0.1758 -0.0711 -0.2374
    1W        W63905   0.047  20.211   6.486 -0.3275 -0.0036 -0.2348
    1W        W63906  28.479  26.257   2.306  0.0852  0.0463 -0.2107
    1W        W63907   8.297   0.656   1.079 -0.1087  0.1632  0.1129
    1W        W63908  17.072   3.550   8.152 -0.2634  0.0313  0.2551
    1W        W63909   8.145   2.624   8.503 -0.2174  0.1083  0.1213
    1W        W63910  28.788   4.474   7.890 -0.0234 -0.1316 -0.3830
    1W        W63911  22.643  26.534   0.172 -0.0492  0.4070  0.0536
    1W        W63912  28.463  14.593   6.754 -0.0721  0.0882  0.1131
    1W        W63913   8.490  25.876   9.144  0.3084 -0.0712 -0.0007
    1W        W63914  29.101   5.589   7.683  0.1071 -0.1145 -0.2372
    1W        W63915  12.686  20.527   9.061 -0.1207 -0.3120 -0.0906
    1W        W63916  17.626   2.612   7.949 -0.0500  0.0550 -0.1958
    1W        W63917  17.518  26.800   0.830  0.0311 -0.1167 -0.3698
    1W        W63918  20.845  22.165   1.754 -0.0870  0.1248 -0.0255
    1W        W63919  14.833   6.375   8.273  0.0501 -0.1271 -0.0969
    1W        W63920  14.688  29.273   8.468 -0.0559 -0.0678 -0.0811
    1W        W63921  14.164  24.749   0.651  0.0595 -0.3126  0.1689
    1W        W63922   1.927  16.808   5.789  0.2140  0.4664  0.0487
    1W        W63923   3.987  25.000   7.147 -0.0929  0.0489 -0.1746
    1W        W63924  24.015   6.599   6.472 -0.0196  0.0757  0.0713
    1W        W63925   8.401  23.987   7.510  0.2424  0.1612 -0.0870
    1W        W63926  21.665   7.995   1.359  0.2354  0.1371 -0.2101
    1W        W63927  13.586  10.487   7.851 -0.0456  0.2744  0.2279
    1W        W63928   0.289  20.808   5.912 -0.0139  0.0174 -0.1923
    1W        W63929  27.903   7.160   8.951 -0.1276 -0.0638  0.2277
    1W        W63930  15.877  10.097   2.094 -0.3509  0.0973 -0.1742
    1W        W63931   3.584  17.784   7.264  0.1830  0.1657 -0.1017
    1W        W63932  16.201  17.464   6.479  0.0714 -0.0698  0.1341
    1W        W63933   6.360   3.159   0.002  0.0809  0.0460  0.1027
    1W        W63934  13.631  25.055   6.270  0.2154  0.2741  0.0721
    1W        W63935   5.084   9.538   0.440 -0.2254 -0.1487  0.0887
    1W        W63936  18.718   2.940   8.998 -0.3051 -0.2967 -0.0859
    1W        W63937   5.551  25.208   6.996  0.1704  0.1029 -0.0971
    1W        W63938   6.116   3.083   8.673  0.1127  0.0598 -0.0448
    1W        W63939   0.864  21.654   0.709  0.1160 -0.0565 -0.1897
    1W        W63940  15.695  14.494   1.241 -0.2376 -0.1697 -0.0102
    1W        W63941  29.620   3.045   2.606 -0.0927  0.0955 -0.0640
    1W        W63942  23.091  29.140   8.254 -0.1813  0.0495 -0.0826
    1W        W63943  24.295  29.067   6.989  0.2639  0.2247  0.0255
    1W        W63944   5.668  20.422   8.536  0.1964 -0.1676 -0.0663
    1W        W63945  24.933  28.121   1.976 -0.1630  0.0189 -0.0809
    1W        W63946  12.953   8.240   1.187  0.1107  0.0233 -0.0279
    1W        W63947  26.737  23.614   2.478 -0.1896  0.2623  0.1796
    1W        W63948  10.246   6.819   7.389 -0.0053  0.0148  0.3298
    1W        W63949  14.082   3.542   1.994  0.0212 -0.0464 -0.0549
    1W        W63950  18.708   4.588   0.451  0.0506 -0.0437  0.0442
    1W        W63951   4.458  11.286   9.321  0.0781 -0.2932 -0.0455
    1W        W63952   4.878  10.051   0.408  0.2305  0.0612  0.3402
    1W        W63953   9.889  22.054   1.497  0.0404 -0.0011 -0.0143
    1W        W63954  13.622  18.691   6.634 -0.1912 -0.0956 -0.0016
    1W        W63955  12.086   1.584   3.099 -0.0303  0.3069 -0.0446
    1W        W63956  23.081  22.834   7.211  0.1947 -0.0287  0.0217
    1W        W63957  28.623  17.051   9.230 -0.0826  0.1565 -0.0795
    1W        W63958  14.230   8.054   1.108 -0.1551 -0.2143  0.2000
    1W        W63959   2.391   9.893   2.619 -0.1284  0.1024 -0.0374
    1W        W63960  13.043   6.919   2.042 -0.4422 -0.0479  0.0557
    1W        W63961  13.937   9.909   1.294  0.1821  0.0534  0.0792
    1W        W63962   0.368  22.238   1.194 -0.1423 -0.2793 -0.1214
    1W        W63963   7.365   0.780   0.193  0.1239  0.0912 -0.1354
    1W        W63964  27.128  13.033   1.017  0.0353  0.0762 -0.4325
    1W        W63965   2.198   1.859   8.962  0.1986 -0.4856 -0.0914
    1W        W63966  29.291  12.871   8.322  0.1500 -0.0973 -0.3277
    1W        W63967  26.851   2.839   6.598  0.1265  0.2308 -0.0117
    1W        W63968  26.296   2.536   2.968  0.0267  0.0287  0.0576
    1W        W63969   0.459  14.747   1.582 -0.0969  0.0800  0.2986
    1W        W63970  16.935  14.450   1.379  0.1592 -0.1503 -0.1855
    1W        W63971  19.724  23.891   1.429  0.0409 -0.0751  0.0847
    1W        W63972   0.971  21.514   1.186 -0.0161  0.2960  0.2243
    1W        W63973  24.420   7.243   7.724 -0.1608  0.0804 -0.2280
    1W        W63974   8.650   7.874   9.049 -0.2567 -0.0855  0.2203
    1W        W63975   3.743  20.863   1.015 -0.0693  0.1037 -0.0101
    1W        W63976   7.132  19.691   7.463  0.2016  0.1751 -0.2084
    1W        W63977   4.206  26.884   0.963  0.1875 -0.0020  0.0297
    1W        W63978   1.688   4.960   3.471 -0.2506 -0.1235  0.2140
    1W        W63979   5.994   3.356   0.748  0.2217  0.3071 -0.0085
    1W        W63980  21.997  21.287   1.147  0.2679  0.2298 -0.0658
    1W        W63981   2.121  14.402   2.037  0.2462 -0.0664  0.1347
    1W        W63982  25.267  14.547   2.269 -0.0901  0.0837 -0.2508
    1W        W63983  25.618   6.779   2.278  0.1064  0.0918  0.2129
    1W        W63984  13.475   4.629   0.809 -0.0158  0.0565 -0.1439
    1W        W63985  16.189   1.422   1.712  0.2252  0.0811 -0.2403
    1W        W63986  12.367  11.887   9.064  0.0415  0.0508 -0.1293
    1W        W63987  18.702  16.626   7.730  0.0494 -0.3358 -0.1748
    1W        W63988   5.982  24.343   8.367  0.1799  0.2408 -0.0038
    1W        W63989   1.144  27.035   5.903 -0.0539 -0.4574 -0.2725
    1W        W63990  28.237   7.422   1.225  0.0841 -0.1957  0.3258
    1W        W63991  26.360  20.928   0.448 -0.2951 -0.1594  0.2925
    1W        W63992  21.046  12.521   0.546  0.1117 -0.0187 -0.2208
    1W        W63993  22.567  20.776   2.453 -0.2541 -0.1961 -0.0906
    1W        W63994  18.827  22.151   8.197  0.1662 -0.0276 -0.0564
    1W        W63995   8.001  29.724   2.793 -0.0262 -0.0992 -0.2973
    1W        W63996   4.211  10.562   8.136  0.0276 -0.0263 -0.3894
    1W        W63997   2.983  21.554   7.810  0.1682 -0.1721  0.1636
    1W        W63998   5.205   0.489   2.828 -0.0013 -0.1567  0.0463
    1W        W63999  29.735   4.226   0.721  0.1269  0.3025 -0.1959
    1W        W64000   3.291  19.339   8.819 -0.1003 -0.2897 -0.1851
    1W        W64001  20.961  13.310   1.561 -0.0172 -0.1834  0.0887
    1W        W64002   9.460  29.336   1.405  0.1964  0.0169 -0.0936
    1W        W64003  21.815   5.244   8.296  0.0530  0.1305 -0.1131
    1W        W64004   7.371  12.025   8.462 -0.2716  0.0547  0.4411
    1W        W64005   5.003   2.138   2.029  0.0996 -0.1957 -0.3365
    1W        W64006  11.724  25.633   7.851 -0.0447  0.2270  0.1109
    1W        W64007   5.690   0.946   0.232 -0.0237  0.2752 -0.2627
    1W        W64008  21.354  25.606   9.396  0.0338 -0.0081  0.0447
    1W        W64009  24.314  13.084   8.080  0.1718  0.0479  0.0156
    1W        W64010   3.099  22.790   1.234 -0.3056  0.2056  0.0267
    1W        W64011  26.342  11.848   7.093 -0.1423 -0.1172  0.0352
    1W        W64012  24.543   3.131   2.930  0.1332 -0.1482  0.0795
    1W        W64013   5.834  19.973   6.649  0.2681  0.2449 -0.1063
    1W        W64014  24.103   4.873   9.204  0.2172 -0.0369 -0.1811
    1W        W64015  27.413   0.879   0.615 -0.0739  0.1695 -0.0401
    1W        W64016  16.661   2.122   2.115  0.1487 -0.1140 -0.0970
    1W        W64017   0.575  12.906   6.476 -0.0915  0.0939  0.2287
    1W        W64018  22.775  27.482   7.837 -0.1367 -0.0325  0.2920
    1W        W64019   7.781   2.138   2.184  0.0892  0.0659  0.1398
    1W        W64020  27.746   1.079   8.931 -0.1320 -0.3175 -0.0426
    1W        W64021  26.618   5.966   3.111  0.0400 -0.1897 -0.4199
    1W        W64022  28.074  15.615   8.186  0.2659 -0.0063 -0.2211
    1W        W64023  12.477  12.508   1.252 -0.1414 -0.0887 -0.0350
    1W        W64024  10.255   1.423   7.802 -0.0586  0.0096  0.2790
    1W        W64025   0.509   8.180   7.579  0.1789  0.1504 -0.0004
    1W        W64026  20.798   6.260   6.987  0.1182 -0.2139 -0.0689
    1W        W64027  29.772  24.025   6.796  0.1211 -0.0613 -0.0185
    1W        W64028   2.112  27.267   0.012 -0.2276  0.2325  0.0407
    1W        W64029  11.523  29.228   7.331  0.0891 -0.0848  0.1636
    1W        W64030  17.668   8.829   7.654  0.1710 -0.0572 -0.3270
    1W        W64031   2.358   8.152   8.087  0.0606 -0.1028  0.2613
    1W        W64032  15.754  23.781   7.525 -0.1379 -0.1062 -0.2427
    1W        W64033   3.910  27.330   8.454  0.0416  0.1253 -0.2714
    1W        W64034   0.798  27.518   6.573  0.0881  0.1974 -0.1066
    1W        W64035   4.437   9.003   1.307 -0.0006 -0.2054  0.0511
    1W        W64036  25.391   2.164   8.152 -0.0697  0.0637 -0.0646
    1W        W64037  21.634   7.499   0.233  0.0395 -0.0119  0.1461
    1W        W64038  19.430  15.745   6.358  0.0212  0.2101 -0.1188
    1W        W64039   7.381  26.741   1.811 -0.2158 -0.0168 -0.4494
    1W        W64040  16.951  22.943   0.498  0.1742  0.1900  0.4366
    1W        W64041   9.753  28.876   1.280  0.1479  0.1153 -0.3134
    1W        W64042   9.589   2.751   7.526 -0.2124  0.0270 -0.0077
    1W        W64043  11.846  24.176   8.944 -0.2870  0.1246  0.1208
    1W        W64044  20.628   5.162   8.065 -0.1845  0.2807 -0.1305
    1W        W64045  12.910   9.326   8.664  0.0346 -0.0658 -0.0410
    1W        W64046  24.094  25.761   1.489  0.1929 -0.5401  0.1032
    1W        W64047  20.026   3.890   7.234 -0.0756  0.0197 -0.1114
    1W        W64048   5.587  28.606   6.143 -0.1681  0.2342  0.1705
    1W        W64049   2.448  22.258   7.438 -0.0277 -0.0085 -0.1080
    1W        W64050   6.654  25.576   6.691 -0.2581  0.1563 -0.3332
    1W        W64051   3.723  20.904   1.971  0.0825 -0.1064 -0.0590
    1W        W64052  28.837  13.488   2.638  0.1091 -0.0624 -0.1409
    1W        W64053   9.054  16.664   7.699 -0.1068 -0.0468  0.0026
    1W        W64054   6.334   6.078   8.454  0.0056 -0.3083 -0.0976
    1W        W64055   6.984  24.648   8.852 -0.0980 -0.0134 -0.2494
    1W        W64056  27.315  20.548   7.918  0.3060 -0.1078 -0.0900
    1W        W64057  18.752   9.858   6.807  0.1609  0.1663  0.0681
    1W        W64058  29.689  23.741   8.966  0.0492 -0.2131  0.1502
    1W        W64059   7.724  16.352   0.429 -0.2647  0.1726  0.2105
    1W        W64060  21.347  21.450   7.719  0.0064  0.3528 -0.1270
    1W        W64061  23.248   1.773   2.416  0.1417 -0.2723  0.1491
    1W        W64062   5.406  17.181   1.533  0.4049 -0.0606  0.0145
    1W        W64063   6.657  12.319   2.177  0.0958 -0.1511  0.1329
    1W        W64064   3.839   3.950   0.478  0.1841 -0.0028  0.1079
    1W        W64065  24.829  15.102   0.758 -0.1004  0.2497 -0.1203
    1W        W64066  27.134  15.785   2.199  0.4375 -0.0480  0.2527
    1W        W64067   7.590  24.721   0.907 -0.0348 -0.0105  0.4840
    1W        W64068   5.131  26.225   0.068 -0.0931  0.0310  0.0051
    1W        W64069  21.666   3.611   3.051  0.0855 -0.0267  0.1263
    1W        W64070   2.873  24.704   6.987  0.1110  0.1083 -0.2307
    1W        W64071   2.460  16.281   8.585 -0.1124  0.0271  0.1029
    1W        W64072   0.598   7.716   6.776  0.0936 -0.0173 -0.1530
    1W        W64073  11.551   5.659   1.288 -0.0955  0.0740 -0.1065
    1W        W64074  23.281  13.075   2.046 -0.1979 -0.2345  0.2306
    1W        W64075  12.078   0.610   2.786 -0.1494 -0.1030  0.0749
    1W        W64076  16.831  21.843   7.572  0.0788 -0.1678  0.0929
    1W        W64077   5.295  27.243   2.330  0.1127 -0.3254 -0.0546
    1W        W64078  13.675   5.897   8.565  0.0185  0.1485  0.1111
    1W        W64079  11.469  23.196   6.114  0.2371 -0.1772 -0.0960
    1W        W64080   6.792   9.111   2.263 -0.0259 -0.3420 -0.0651
    1W        W64081  28.056   3.344   8.255 -0.1657  0.0575  0.1005
    1W        W64082  26.810   9.486   6.567 -0.2730 -0.0252  0.0212
    1W        W64083   3.474  21.750   9.426  0.1260 -0.3048  0.0454
    1W        W64084  27.845  19.256   1.661  0.1406  0.2171  0.1144
    1W        W64085  10.360  25.357   7.859 -0.0898 -0.0232 -0.2415
    1W        W64086  26.857  16.471   5.557 -0.0075 -0.2041 -0.2544
    1W        W64087   8.917  26.941   7.060 -0.1789  0.0669 -0.3183
    1W        W64088  10.739   3.215   7.956 -0.3110 -0.0763  0.0164
    1W        W64089  25.315  27.753   2.656 -0.1486  0.1120  0.3396
    1W        W64090  29.295  11.884   8.067  0.2720 -0.2911  0.2053
    1W        W64091  23.710  26.755   9.372  0.1819 -0.0294 -0.3361
    1W        W64092   2.234  21.803   7.482  0.2953  0.0226 -0.1568
    1W        W64093  20.208  18.188   7.548 -0.0013 -0.1543  0.1006
    1W        W64094  10.623  16.074   1.042 -0.0334  0.1781  0.2562
    1W        W64095   7.717   0.482   7.903  0.2434 -0.2433  0.2012
    1W        W64096  26.383   7.502   0.019  0.2996 -0.0153 -0.3112
    1W        W64097   5.722  28.559   7.361  0.0365 -0.0722  0.1293
    1W        W64098  23.635  15.410   8.772  0.2580  0.0422  0.1084
    1W        W64099  24.314   6.214   1.923  0.0648 -0.1212 -0.0830
    1W        W64100  19.740  18.424   1.663  0.1333  0.1394  0.0706
    1W        W64101  23.089  29.459   9.340  0.1272  0.1132 -0.0038
    1W        W64102  22.713  23.314   8.961  0.1826 -0.3122  0.0157
    1W        W64103  20.184  27.906   8.267 -0.0405 -0.2010 -0.5871
    1W        W64104  13.431   0.243   0.893 -0.0222 -0.2228  0.1173
    1W        W64105  25.785  16.138   0.808  0.1636  0.2817 -0.1756
    1W        W64106   7.410   7.813   8.620 -0.0750 -0.2212 -0.3529
    1W        W64107   7.790   4.590   9.237  0.0576  0.2036  0.0983
    1W        W64108  10.088   2.821   1.088 -0.1046  0.0455  0.0479
    1W        W64109   3.343   5.098   9.000 -0.0232  0.2566  0.2394
    1W        W64110  23.784  17.375   0.828  0.1452 -0.0368 -0.1208
    1W        W64111  24.018   2.662   7.949  0.0788  0.2140  0.2518
    1W        W64112   1.192  14.758   8.406  0.0204 -0.0846  0.1560
    1W        W64113  19.430   3.077   9.380  0.1464  0.0275 -0.3460
    1W        W64114   8.851  21.835   8.881  0.0573 -0.3130  0.2285
    1W        W64115   5.716  14.977   0.222  0.2851 -0.2497 -0.1375
    1W        W64116  15.746   1.064   0.427 -0.2572  0.0859  0.1216
    1W        W64117   8.414  21.696   8.643 -0.0193  0.0204 -0.0658
    1W        W64118   2.076  20.930   8.188  0.0220 -0.3126  0.0398
    1W        W64119  26.819   9.675   7.078 -0.1399 -0.1761 -0.1390
    1W        W64120  21.913  12.099   8.811  0.1285 -0.0268 -0.1893
    1W        W64121   1.467   9.646   8.508 -0.0478 -0.2293 -0.1403
    1W        W64122  29.568  26.422   5.867  0.2573 -0.0964 -0.1029
    1W        W64123  10.137  17.590   8.853  0.0448 -0.3411  0.1105
    1W        W64124  11.785   1.696   0.034 -0.0035 -0.0047 -0.0606
    1W        W64125  21.542  24.791   0.221 -0.1923  0.2640 -0.0919
    1W        W64126  13.070   8.688   8.554 -0.3062  0.2907  0.0230
    1W        W64127  10.818  22.044   1.289 -0.4742 -0.0791  0.0227
    1W        W64128  27.395  14.993   7.175 -0.2076  0.1656 -0.0507
    1W        W64129  19.148   2.687   2.463 -0.0222 -0.1431  0.0557
    1W        W64130   3.607  17.085   7.033  0.0863 -0.0718  0.3812
    1W        W64131   6.904   7.821   1.643  0.2147 -0.0408  0.3309
    1W        W64132  23.510  15.472   1.947 -0.0246  0.0813  0.1222
    1W        W64133   1.438  23.867   7.950  0.1383 -0.2046 -0.1395
    1W        W64134   7.616  18.667   1.455 -0.0179  0.1471  0.1327
    1W        W64135   9.769   1.849   8.719  0.0114  0.0954 -0.0240
    1W        W64136  14.574  28.219   2.574 -0.0334 -0.1030  0.0773
    1W        W64137  29.541  27.857   2.475  0.0936  0.2929 -0.2842
    1W        W64138  27.685  11.498   1.323 -0.0154 -0.4520 -0.2416
    1W        W64139   7.371  10.313   7.908  0.4486 -0.2061 -0.1199
    1W        W64140   6.546   2.640   1.333  0.2392 -0.0321 -0.1949
    1W        W64141  28.007   7.045   0.851  0.0574  0.1189  0.0427
    1W        W64142   0.967  29.489   8.750 -0.2093 -0.1635  0.4822
    1W        W64143  24.373  26.310   0.499  0.2285 -0.0466 -0.1305
    1W        W64144  19.301  13.087   1.686  0.1474 -0.0115 -0.0397
    1W        W64145   2.036  20.099   6.024 -0.2232 -0.0614  0.0469
    1W        W64146  11.950  21.000   9.279 -0.1625  0.1607 -0.0004
    1W        W64147   1.606  21.056   5.823 -0.1941 -0.1204  0.2511
    1W        W64148   9.381  28.347   0.613 -0.0477 -0.0268  0.1583
    1W        W64149  13.472  22.107   9.294 -0.1794  0.1414 -0.1147
    1W        W64150  18.984  18.214   0.591  0.0744  0.2281  0.0024
    1W        W64151  28.823  22.201   1.488  0.1415 -0.0216 -0.1057
    1W        W64152  12.367   7.796   8.209  0.2609  0.2302  0.1552
    1W        W64153  14.372   0.929   2.974  0.1529 -0.2381 -0.0016
    1W        W64154   9.203   0.398   2.110 -0.1364 -0.1876 -0.0208
    1W        W64155  28.055  17.550   7.418 -0.2389  0.1421  0.1005
    1W        W64156  24.421  16.657   6.971  0.1118 -0.0936 -0.0656
    1W        W64157   6.004  13.645   9.258  0.1383 -0.0285 -0.0038
    1W        W64158  21.867   9.976   6.667  0.0040  0.1179 -0.1312
    1W        W64159   9.884   5.543   7.532  0.0413 -0.0434  0.2188
    1W        W64160   3.307  20.871   7.120 -0.1349 -0.1029 -0.1210
    1W        W64161   5.259  15.845   7.049  0.3313  0.4159 -0.3055
    1W        W64162   5.634  29.576   7.965  0.1350 -0.0887 -0.1877
    1W        W64163  14.154  18.176   8.870  0.0062 -0.0135  0.1628
    1W        W64164  22.802   8.625   6.725 -0.0041 -0.0933 -0.2600
    1W        W64165   6.552  22.470   5.833  0.1035 -0.1474 -0.2270
    1W        W64166  23.975   1.259   7.468 -0.1157 -0.1192  0.0482
    1W        W64167   3.120  14.058   5.805  0.0426 -0.0131  0.1847
    1W        W64168   8.684   0.429   0.630 -0.0052 -0.0702  0.1926
    1W        W64169   6.927  14.436   1.175 -0.1604 -0.1123 -0.1084
    1W        W64170  28.240  22.588   1.309 -0.3123 -0.1191  0.0531
    1W        W64171  12.074   2.035   1.264 -0.0523  0.0633 -0.1417
    1W        W64172  24.553  17.616   8.504 -0.0692  0.1757 -0.1575
    1W        W64173  12.730  28.892   8.688  0.1041  0.2052  0.4900
    1W        W64174   2.250  17.155   5.875  0.0970 -0.0477  0.3706
    1W        W64175  14.707  26.408   6.551  0.2558 -0.1330 -0.0616
    1W        W64176   2.503  24.636   0.974 -0.0850  0.1504  0.1820
    1W        W64177  29.260  10.356   7.348 -0.0512  0.0476  0.2607
    1W        W64178  26.755  29.458   0.310  0.0690  0.2267 -0.0288
    1W        W64179  25.843   7.687   7.375  0.2930 -0.2179 -0.0471
    1W        W64180   8.235   8.419   2.471  0.1832  0.0211 -0.0557
    1W        W64181  28.786  15.402   5.681  0.0790  0.0449 -0.2868
    1W        W64182  15.865   2.857   2.288  0.1640  0.0114 -0.4305
    1W        W64183  22.793  29.069   2.838 -0.1303 -0.0420  0.0864
    1W        W64184  23.063  20.340   1.022  0.1981 -0.0247  0.0190
    1W        W64185   1.268   5.737   2.171  0.0580  0.0671 -0.0901
    1W        W64186  27.737   4.693   3.377 -0.0719 -0.1237 -0.1612
    1W        W64187  22.252   6.030   2.103 -0.2139  0.2442  0.2116
    1W        W64188  25.055  25.542   1.651 -0.1013  0.1185  0.0965
    1W        W64189  14.343  23.370   8.260  0.4491  0.1461  0.0487
    1W        W64190  23.589  12.165   1.801  0.0580  0.1746 -0.2489
    1W        W64191  14.529  16.154   7.772 -0.1080 -0.1524 -0.0840
    1W        W64192   5.569  12.100   0.433 -0.0996  0.1431 -0.0432
    1W        W64193   5.554  26.433   7.736  0.0857 -0.0352  0.2483
    1W        W64194  18.282  17.805   0.163  0.1415  0.1004 -0.2698
    1W        W64195  18.259  24.207   8.941 -0.2355 -0.0699 -0.2120
    1W        W64196   4.327  22.522   2.366  0.0432  0.2970  0.2005
    1W        W64197  17.934   5.774   8.168 -0.1778  0.1218  0.0407
    1W        W64198  12.040   5.035   7.681  0.2044  0.0423  0.0249
    1W        W64199   5.921   3.952   2.163  0.0829 -0.1019 -0.0203
    1W        W64200  17.832   1.887   8.105  0.0926 -0.1635 -0.0638
    1W        W64201  28.432   2.819   1.510  0.1963  0.0690  0.1319
    1W        W64202  13.882  13.207   2.593  0.1080  0.0583  0.1349
    1W        W64203  15.168   1.240   1.338 -0.0113  0.2282 -0.2050
    1W        W64204   4.385  10.080   0.667  0.4100 -0.0762  0.0062
    1W        W64205  20.855  10.173   7.215  0.2970 -0.0748 -0.0508
    1W        W64206   2.835   5.062   0.950 -0.0337  0.1496 -0.2560
    1W        W64207  16.863  13.334   8.123  0.3206  0.2800 -0.1496
    1W        W64208  26.507   5.438   6.722 -0.1767 -0.1243  0.0606
    1W        W64209  15.530  29.262   0.715  0.0209 -0.1092 -0.4177
    1W        W64210  13.314   9.167   8.358 -0.3738 -0.0590 -0.1450
    1W        W64211  29.395  24.665   0.395  0.1200 -0.0295 -0.3461
    1W        W64212   0.352  15.158   8.394  0.0198  0.1407 -0.0589
    1W        W64213  27.324   0.871   8.797 -0.1914 -0.0319 -0.0049
    1W        W64214   9.661  28.806   0.721 -0.1005 -0.2937 -0.0976
    1W        W64215   3.335  27.950   3.094 -0.1052 -0.1953  0.0988
    1W        W64216  20.874   5.390   1.758 -0.0868 -0.1171 -0.0914
    1W        W64217   9.232  29.559   0.705 -0.1816  0.0669 -0.0839
    1W        W64218  29.326  15.753   1.052 -0.0267 -0.0963 -0.2149
    1W        W64219  21.313   0.091   7.451  0.1255  0.0082  0.0108
    1W        W64220  19.871   4.758   6.939 -0.1566  0.1845 -0.0947
    1W        W64221  11.529   1.995   1.867 -0.2747 -0.0899  0.0617
    1W        W64222  15.451  18.472   9.158 -0.1135 -0.2730  0.0912
    1W        W64223   8.313  21.519   1.555 -0.0756  0.1805  0.5233
    1W        W64224   9.022  17.882   1.071  0.0278 -0.0807  0.4960
    1W        W64225  14.811  16.721   0.378  0.0116 -0.0667  0.0714
    1W        W64226   7.420  29.222   1.218 -0.1531  0.0044 -0.4392
    1W        W64227   0.092   8.081   2.917 -0.1557 -0.0957 -0.1725
    1W        W64228   7.289   4.323   2.145 -0.1413  0.0337 -0.0322
    1W        W64229  29.003  29.603   8.768 -0.1687  0.2674 -0.1848
    1W        W64230   5.057  26.852   1.314 -0.1891 -0.4369  0.0640
    1W        W64231  23.165   3.269   1.083 -0.2400 -0.2101  0.0889
    1W        W64232  21.630  22.552   9.237  0.4077  0.1712  0.2050
    1W        W64233  27.424  15.598   9.383  0.0490 -0.0250  0.1070
    1W        W64234   7.628  20.816   0.789  0.2445  0.2661  0.2485
    1W        W64235  29.233   8.781   0.052  0.3800  0.0032 -0.1240
    1W        W64236  21.325  25.896   8.934 -0.0244  0.2841  0.2320
    1W        W64237  24.028  27.764   1.623  0.0819 -0.0782 -0.1511
    1W        W64238  12.757  23.046   1.098 -0.1137 -0.1557  0.1906
    1W        W64239  26.633   5.516   8.033  0.2652 -0.2535  0.1009
    1W        W64240  28.574  26.226   2.812 -0.0671 -0.0052 -0.0976
    1W        W64241  10.872  27.076   1.966  0.0129 -0.0834  0.0141
    1W        W64242   5.631  14.192   1.031  0.0880 -0.0515 -0.0737
    1W        W64243   9.966  27.561   3.421 -0.0984  0.0149  0.0504
    1W        W64244   2.607   0.818   0.635  0.0803 -0.1075  0.4743
    1W        W64245  26.461   2.966   0.210 -0.0346 -0.0716  0.1866
    1W        W64246   0.542  11.110   9.142  0.1140 -0.1842 -0.1264
    1W        W64247  12.803  19.912   1.445 -0.0949 -0.0272  0.2788
    1W        W64248  26.303  17.945   8.269  0.1655  0.0202 -0.0818
    1W        W64249  23.215  21.740   2.521 -0.1591 -0.0516  0.0159
    1W        W64250   4.630  21.168   1.973 -0.0366 -0.0098 -0.0970
    1W        W64251  17.719  12.541   8.290  0.0279  0.0329  0.2377
    1W        W64252  26.086   4.440   1.340 -0.0189  0.1269 -0.1715
    1W        W64253  13.157   0.108   6.765  0.0075 -0.1482  0.2683
    1W        W64254  23.102  25.162   9.331  0.2128 -0.0097  0.0138
    1W        W64255   8.020   9.673   1.146  0.1643 -0.1141  0.0539
    1W        W64256  16.472   7.996   0.217  0.0458  0.1401 -0.1829
    1W        W64257  12.000  25.687   1.409 -0.0399 -0.1292 -0.1075
    1W        W64258   0.652   7.768   0.996  0.2308  0.0086 -0.1301
    1W        W64259  17.156   4.424   2.456  0.1767  0.1434 -0.1083
    1W        W64260  19.820   9.647   8.549  0.1454  0.3937  0.2439
    1W        W64261  17.541   3.387   1.555  0.2208  0.2682  0.1892
    1W        W64262   7.392  24.188   6.664  0.1035  0.1584 -0.1909
    1W        W64263  21.682  19.380   0.937 -0.0328 -0.2346 -0.1721
    1W        W64264  20.688   6.904   7.836 -0.4269  0.1135  0.0451
    1W        W64265   1.422   9.328   1.270  0.0733  0.0141 -0.0282
    1W        W64266   2.545   0.570   9.445  0.1799  0.1998  0.1154
    1W        W64267  14.481  25.548   7.931  0.1995 -0.0078  0.0605
    1W        W64268  14.888  24.915   0.149  0.2541 -0.0174  0.0629
    1W        W64269  15.965  14.973   1.596 -0.1749 -0.0077  0.2157
    1W        W64270  29.310  13.656   0.177 -0.0519  0.1169 -0.1565
    1W        W64271   6.428  17.270   8.583  0.2248  0.1607 -0.1545
    1W        W64272  16.048   0.648   2.394  0.0429 -0.3052  0.0730
    1W        W64273   7.016   3.298   0.793  0.0415 -0.0135 -0.1149
    1W        W64274  14.775  21.593   2.552  0.0434  0.1064  0.2052
    1W        W64275  29.184   7.602   7.527 -0.0881 -0.0329  0.0320
    1W        W64276  27.039  19.744   0.439  0.1919 -0.1682  0.3587
    1W        W64277  28.412  20.517   1.914  0.1676 -0.1273 -0.0749
    1W        W64278   2.073  10.935   6.266  0.2016 -0.0597  0.0655
    1W        W64279  14.827  18.789   7.464 -0.2883  0.0080  0.3300
    1W        W64280  25.926  22.138   7.924 -0.2420 -0.1376 -0.0314
    1W        W64281  17.068   2.343   1.860 -0.0538 -0.0649 -0.0960
    1W        W64282   2.769   4.831   2.541  0.3164  0.1281 -0.0283
    1W        W64283  19.823   3.315   2.340  0.3294  0.1888  0.4709
    1W        W64284   7.787  12.432   8.469  0.1024  0.0122  0.0032
    1W        W64285  26.035  11.582   0.889  0.0955 -0.1916 -0.0696
    1W        W64286  16.263  12.235   2.266  0.0499 -0.4549 -0.0074
    1W        W64287   1.704   1.973   8.131 -0.1481  0.4372  0.0615
    1W        W64288  19.853  22.326   8.159 -0.0459 -0.0315 -0.1388
    1W        W64289  18.006   2.913   8.241  0.1112  0.0769  0.1002
    1W        W64290  29.680  10.920   1.337 -0.1478  0.1127 -0.4463
    1W        W64291   8.030   6.621   7.780  0.0313  0.0991 -0.0117
    1W        W64292  23.165  13.214   7.398  0.3967 -0.1235  0.1472
    1W        W64293   8.628  23.006   8.493  0.0746  0.3669  0.1518
    1W        W64294  29.729  11.278   6.637  0.3568 -0.0027  0.1135
    1W        W64295   6.090   9.079   1.891  0.1530  0.1689  0.0959
    1W        W64296  20.749   3.105   8.190 -0.2244  0.1725  0.2597
    1W        W64297  25.005   8.344   0.370 -0.2039  0.2021  0.0585
    1W        W64298   7.246  20.421   8.576  0.0391  0.0500 -0.2415
    1W        W64299   6.762  29.422   8.991  0.1225 -0.1782  0.0241
    1W        W64300  26.248   7.603   7.801 -0.2650 -0.2062  0.3751
    1W        W64301  25.526  28.290   7.136  0.1396 -0.0390 -0.1270
    1W        W64302   2.991  26.989   9.222 -0.2414  0.2511  0.0454
    1W        W64303  29.397   3.937   7.326  0.0883  0.0838 -0.0663
    1W        W64304  29.420   4.443   0.216 -0.2483 -0.2365  0.2824
    1W        W64305  14.185   3.731   3.025  0.1243 -0.3148 -0.1240
    1W        W64306   5.235   9.919   8.982  0.1130  0.1349 -0.2430
    1W        W64307  28.908  15.702   7.899  0.1125 -0.2448 -0.1153
    1W        W64308   0.267  22.537   0.798 -0.1900 -0.2214  0.1207
    1W        W64309  19.790  24.385   7.808 -0.1707  0.0598  0.3190
    1W        W64310  28.131  24.547   1.701  0.1229 -0.2333  0.0188
    1W        W64311  29.769  22.025   6.805 -0.0227 -0.0773  0.2456
    1W        W64312   1.902   2.775   2.563  0.1142 -0.3829 -0.1391
    1W        W64313  18.497   9.096   7.418 -0.1352 -0.0963 -0.0498
    1W        W64314  15.701  14.111   7.929 -0.2411  0.2165  0.0321
    1W        W64315  28.355   0.194   8.139  0.0903  0.1931 -0.2834
    1W        W64316   3.653   5.071   0.144  0.2344  0.1554  0.1717
    1W        W64317   7.554   7.876   2.920  0.2294  0.0561  0.1740
    1W        W64318   7.165   8.262   8.728 -0.1057 -0.2430  0.0664
    1W        W64319  14.889  21.048   1.113  0.0685 -0.0536  0.1404
    1W        W64320   9.515  22.187   2.468  0.2703 -0.0665 -0.0728
    1W        W64321   2.059   4.446   7.016 -0.0183 -0.1056 -0.2902
    1W        W64322  24.061  19.253   7.513  0.0939 -0.0504 -0.0046
    1W        W64323   0.152  20.835   7.429  0.1799  0.0858  0.0975
    1W        W64324   5.402   2.008   0.930  0.1722 -0.3276  0.0076
    1W        W64325  17.996  14.199   7.920  0.0549 -0.0376  0.3237
    1W        W64326   5.652  25.008   1.752 -0.0285  0.3047 -0.2277
    1W        W64327   6.849  19.649   8.145 -0.0473  0.2596 -0.0380
    1W        W64328   7.875  26.744   9.187  0.1184  0.0757 -0.0703
    1W        W64329  19.842  26.038   8.241 -0.2514  0.2584 -0.0216
    1W        W64330  19.675  20.335   6.643  0.0842 -0.2846 -0.1914
    1W        W64331   7.636  25.318   2.773 -0.5265  0.1889  0.3501
    1W        W64332   4.974  28.282   3.519 -0.1098 -0.0621  0.3008
    1W        W64333   6.321  25.608   7.487  0.2310  0.0308  0.2164
    1W        W64334   2.344   1.320   6.796  0.2046 -0.0783  0.3990
    1W        W64335  23.274  27.245   2.271 -0.1220 -0.0142  0.0573
    1W        W64336   0.300   2.126   2.030  0.0764  0.1145  0.1841
    1W        W64337  28.431  22.982   9.145 -0.0257 -0.2101  0.1657
    1W        W64338  24.467  20.184   8.858  0.2215 -0.2847  0.0979
    1W        W64339   5.916  12.404   9.173 -0.1479  0.3443  0.3538
    1W        W64340   3.189  27.406   8.879 -0.2816 -0.2469 -0.0087
    1W        W64341  16.891  29.581   9.361  0.2421 -0.0851  0.0710
    1W        W64342   6.893   2.294   8.835  0.2133 -0.1334 -0.0609
    1W        W64343  29.648  25.976   6.793  0.0303  0.0914 -0.0245
    1W        W64344   1.315  26.105   8.516 -0.0890 -0.1202 -0.2340
    1W        W64345  24.967  26.590   0.928  0.2013  0.2111  0.0756
    1W        W64346  10.547  19.325   8.014 -0.1983  0.0708 -0.0579
    1W        W64347  25.572  17.477   8.527 -0.3263  0.0093  0.0290
    1W        W64348   1.047   7.310   6.633  0.1222  0.2409  0.0905
    1W        W64349  12.843   0.279   0.629 -0.0899 -0.2025 -0.0342
    1W        W64350  15.093  11.009   0.207  0.3193  0.1098 -0.0750
    1W        W64351  24.078  25.326   6.879 -0.0237 -0.1049  0.1695
    1W        W64352  18.646  20.635   9.332  0.2173 -0.0337  0.1172
    1W        W64353  16.192  22.145   8.034 -0.2559 -0.1079 -0.3947
    1W        W64354   5.089   5.679   2.978 -0.1893 -0.1457  0.1482
    1W        W64355  18.424   1.396   2.645 -0.0737  0.1360  0.2270
    1W        W64356  24.233  14.386   2.302 -0.1851 -0.1914 -0.1845
    1W        W64357   6.820  25.053   8.494 -0.3002  0.2110  0.1098
    1W        W64358  23.549  21.668   7.291  0.2424  0.2781 -0.2587
    1W        W64359  12.314  28.789   7.798 -0.0491 -0.2051 -0.0407
    1W        W64360   9.564   3.638   8.161  0.2372  0.2365  0.2425
    1W        W64361   0.790  15.518   9.184  0.1093 -0.4015  0.1472
    1W        W64362  29.580   1.110   9.102  0.1436  0.2671 -0.0777
    1W        W64363   0.188  17.979   2.607 -0.3612  0.3551 -0.1288
    1W        W64364   8.051  10.522   0.105  0.1642  0.1878  0.0434
    1W        W64365  16.212  28.112   7.485  0.1494 -0.0250 -0.1314
    1W        W64366  21.093  21.403   2.491  0.0597  0.3063 -0.1017
    1W        W64367  11.704  27.502   0.205  0.4027  0.2743  0.0674
    1W        W64368   4.782   8.689   1.713 -0.3610 -0.0068  0.2263
    1W        W64369   1.009   0.662   8.568  0.0915  0.0303  0.2187
    1W        W64370   9.802  15.241   1.559 -0.4093 -0.2386  0.2320
    1W        W64371  12.433  17.261   7.105  0.0557 -0.1080  0.0264
    1W        W64372   5.258  12.452   2.316 -0.0939  0.0292 -0.0239
    1W        W64373  17.882   1.265   0.818 -0.0212 -0.1044  0.1048
    1W        W64374   9.538   3.864   7.700 -0.0365 -0.0007  0.3023
    1W        W64375   2.009  11.465   6.965  0.2890 -0.1128 -0.0532
    1W        W64376  25.429  20.341   6.044  0.0672  0.1365  0.1070
    1W        W64377   5.435  21.873   6.684 -0.0083  0.0782  0.0175
    1W        W64378  12.617  12.559   0.125 -0.0467 -0.1104  0.2415
    1W        W64379  13.012   1.422   8.040  0.2933 -0.0192 -0.0518
    1W        W64380  24.846  12.677   0.045 -0.0318 -0.1418  0.3130
    1W        W64381   0.338  19.192   7.653  0.2277 -0.0370 -0.2184
    1W        W64382   5.934  22.754   7.591 -0.0435 -0.1654 -0.4385
    1W        W64383   9.289  13.266   8.990  0.0458  0.0731  0.0876
    1W        W64384  15.805  18.849   0.399 -0.2070 -0.1792  0.1600
    1W        W64385  20.196   4.905   9.366 -0.1195 -0.3623  0.0717
    1W        W64386  18.893  15.296   7.181  0.0324 -0.0116 -0.0473
    1W        W64387  21.998  10.301   0.988  0.0412 -0.3092 -0.0626
    1W        W64388   4.921  15.266   8.445 -0.0767  0.1474 -0.3729
    1W        W64389  14.293  23.433   1.054  0.0182 -0.2138 -0.0646
    1W        W64390  12.916  19.435   2.235 -0.2826 -0.2404 -0.0156
    1W        W64391  15.975  17.026   0.025 -0.1224  0.0828  0.1971
    1W        W64392  19.777   3.359   0.783 -0.1112  0.1619 -0.0353
    1W        W64393  24.095  17.640   8.758  0.0556  0.2062 -0.0738
    1W        W64394  18.501   1.657   2.177 -0.1629  0.1257  0.3140
    1W        W64395   2.580  19.357   9.283  0.0169  0.2689 -0.3623
    1W        W64396   0.939  11.878   0.208 -0.1593  0.0934 -0.4431
    1W        W64397  22.148   3.521   0.560  0.0944 -0.2024  0.1714
    1W        W64398   3.605  21.371   2.205  0.1064  0.1773  0.1999
    1W        W64399  11.215  18.693   9.457  0.1293 -0.0182  0.1510
    1W        W64400   7.914  16.787   9.192 -0.0066  0.0072  0.1487
    1W        W64401  21.084  28.949   7.269 -0.1090 -0.1228  0.0733
    1W        W64402   9.653  27.270   2.474 -0.1199 -0.1291  0.0417
    1W        W64403   8.598   4.314   2.527 -0.2074  0.1378  0.0139
    1W        W64404  15.058  18.451   8.255 -0.2804 -0.1736 -0.1754
    1W        W64405  26.392   9.230   6.334 -0.1749 -0.0776 -0.1434
    1W        W64406  26.656   3.281   6.859 -0.1283  0.1036  0.0429
    1W        W64407  16.251  28.033   8.404 -0.1162 -0.0215 -0.1629
    1W        W64408  14.635   7.926   9.420  0.1741 -0.0003  0.1590
    1W        W64409  28.672   5.692   8.632 -0.0953  0.5067  0.0585
    1W        W64410   5.763  23.069   6.037 -0.3119 -0.0140 -0.0515
    1W        W64411   2.568   7.434   2.443  0.1336  0.0973  0.0845
    1W        W64412  14.712  28.129   8.333  0.0978 -0.0752  0.1154
    1W        W64413  10.913   1.810   0.502  0.0258  0.1887  0.3762
    1W        W64414  21.690   8.954   1.769  0.0517 -0.2299 -0.2555
    1W        W64415  21.882   1.776   9.168 -0.1107 -0.0253 -0.0770
    1W        W64416   6.167  14.569   0.082 -0.0731  0.2566 -0.1662
    1W        W64417  22.339  21.811   0.399 -0.1116 -0.1958 -0.1063
    1W        W64418  23.599  12.727   6.885  0.1919 -0.1267  0.3790
    1W        W64419   6.358   6.105   1.608  0.0870  0.1187  0.0900
    1W        W64420   0.044  14.664   8.283  0.0090  0.3330 -0.3864
    1W        W64421  22.978   0.140   1.746  0.0597  0.1807 -0.0443
    1W        W64422  23.024  27.813   7.252 -0.0190  0.1928 -0.0412
    1W        W64423   4.938  24.922   1.260 -0.0798  0.1914  0.1738
    1W        W64424   7.188  20.402   7.598 -0.0408  0.0896 -0.2092
    1W        W64425  14.900  21.958   0.977 -0.0977 -0.3081  0.1830
    1W        W64426   4.392  12.067   2.805 -0.0542  0.1229  0.1767
    1W        W64427   6.433   9.248   9.248  0.0274  0.0283 -0.2408
    1W        W64428  27.373  13.637   2.464  0.0797  0.2402  0.0103
    1W        W64429   9.436   3.352   7.692  0.2511  0.1295 -0.1200
    1W        W64430  17.273  23.971   6.896 -0.0946 -0.0171 -0.0959
    1W        W64431   6.804  18.164   6.199  0.0270 -0.0588 -0.0559
    1W        W64432  27.564  26.517   1.683  0.0235  0.1670 -0.2165
    1W        W64433  12.506  13.999   1.565  0.0363  0.0544 -0.4232
    1W        W64434  28.851   5.237   2.698 -0.2435  0.0600 -0.0733
    1W        W64435  26.035   7.127   9.457  0.1642 -0.1924  0.0606
    1W        W64436   7.541  12.267   7.727 -0.0391 -0.0270 -0.1060
    1W        W64437  13.694   5.523   8.849 -0.1762 -0.1374  0.3578
    1W        W64438   4.900  28.861   2.646 -0.2960  0.1952  0.1035
    1W        W64439   7.937   8.794   1.284 -0.0032  0.1967 -0.2698
    1W        W64440  19.510  24.082   0.410 -0.2350 -0.1117  0.0442
    1W        W64441  13.234  10.008   1.514 -0.0570  0.1556  0.0617
    1W        W64442   4.522   6.298   7.580 -0.0273  0.1205  0.0326
    1W        W64443  11.539  12.488   8.857  0.0584 -0.2499  0.1475
    1W        W64444  17.970  10.128   6.736 -0.0259 -0.2604  0.3200
    1W        W64445  20.759   4.204   8.206 -0.1195  0.2041  0.0085
    1W        W64446  24.612  19.242   6.894 -0.1109  0.1448 -0.2813
    1W        W64447   0.468   3.447   3.248  0.1439  0.1744  0.0160
    1W        W64448  26.704  21.932   7.222 -0.1536  0.1693 -0.0722
    1W        W64449   5.510  14.524   7.829 -0.0506  0.1435 -0.0991
    1W        W64450  20.362   1.327   1.905  0.0930  0.2079 -0.1459
    1W        W64451  17.015  20.407   1.338 -0.2530 -0.1194  0.0144
    1W        W64452  17.015  27.954   7.272 -0.0756 -0.0500  0.0255
    1W        W64453  25.689  20.503   6.467 -0.1683 -0.1121  0.1974
    1W        W64454  25.293  25.094   8.995 -0.1432  0.1209 -0.1545
    1W        W64455  24.552  14.751   6.075 -0.3267  0.0858  0.1380
    1W        W64456  12.215   3.782   0.776 -0.0710 -0.1435  0.0433
    1W        W64457   6.482   0.498   8.595 -0.1517 -0.1190 -0.5391
    1W        W64458   3.004  15.600   8.932  0.0199  0.0295  0.6839
    1W        W64459  24.764   5.679   0.616  0.1628 -0.0389  0.0584
    1W        W64460  28.764  21.728   9.369 -0.0787 -0.1969 -0.1609
    1W        W64461  25.403  10.331   8.082 -0.0515 -0.3334 -0.1680
    1W        W64462  11.651  25.802   6.425  0.1841  0.0022  0.0434
    1W        W64463   0.931  11.164   7.443  0.0957 -0.1344 -0.1355
    1W        W64464   0.845  19.327   7.785  0.1391 -0.0096  0.1527
    1W        W64465   4.407  12.297   7.277  0.1819  0.0693 -0.1145
    1W        W64466  29.304  12.217   7.696  0.1960 -0.0123  0.0160
    1W        W64467   2.874  19.642   0.526 -0.2038  0.2505 -0.1356
    1W        W64468  23.577  17.436   7.647 -0.2321 -0.1022 -0.1171
    1W        W64469   1.638   8.633   7.831  0.2595  0.3600 -0.5296
    1W        W64470  21.986  10.563   1.943 -0.1999  0.0755 -0.0503
    1W        W64471  16.494   6.085   2.393  0.2863 -0.0409 -0.0280
    1W        W64472  16.866  19.936   1.304 -0.0835  0.1777  0.1296
    1W        W64473  28.448   9.250   6.019  0.1885  0.3921  0.0382
    1W        W64474  23.248  13.035   7.861  0.1514  0.2296 -0.1423
    1W        W64475   9.319  27.510   1.075 -0.0596 -0.0640 -0.1950
    1W        W64476  23.182   4.912   2.249  0.1261 -0.1248  0.1382
    1W        W64477   2.201  12.073   1.237 -0.0812  0.1567  0.2082
    1W        W64478  13.473  26.004   1.623  0.0436  0.3231  0.1000
    1W        W64479  27.293  25.478   7.789 -0.4058 -0.1232 -0.0404
    1W        W64480  28.987   1.960   2.451  0.4064  0.0917  0.2984
    1W        W64481  29.209  14.727   8.999  0.0702 -0.0890  0.0705
    1W        W64482  19.171   2.270   0.993  0.0577  0.0691  0.1873
    1W        W64483  23.671  12.509   1.289 -0.0052  0.3531 -0.1620
    1W        W64484   4.091  27.531   7.579  0.1787  0.1844  0.0824
    1W        W64485   3.592  25.805   5.755  0.2761 -0.1783 -0.2593
    1W        W64486  19.653  21.713   2.382 -0.0683  0.2999 -0.2590
    1W        W64487  26.629  28.235   1.746 -0.0363  0.1266 -0.3570
    1W        W64488   5.819  25.958   0.075 -0.1540  0.1445  0.3527
    1W        W64489   9.683  15.148   9.105  0.1145 -0.0023  0.0694
    1W        W64490  27.118   2.464   9.279 -0.0466  0.4400 -0.0585
    1W        W64491  19.682   8.510   2.246  0.1298  0.1488 -0.0378
    1W        W64492  13.154  14.626   0.478 -0.5008  0.0256 -0.1177
    1W        W64493  27.892  12.492   6.937 -0.2144  0.1181  0.1313
    1W        W64494  21.295   1.793   0.367  0.0080 -0.0505  0.1494
    1W        W64495  25.889  24.036   1.959 -0.0072 -0.0340  0.1646
    1W        W64496   4.136  22.079   0.911  0.3607 -0.0988 -0.0381
    1W        W64497  23.642   3.138   3.076  0.0811 -0.3339 -0.4020
    1W        W64498   8.075   9.582   0.643  0.0163 -0.0744 -0.1435
    1W        W64499  22.968  23.984   8.288 -0.0673 -0.2191  0.1564
    1W        W64500   0.044   7.947   7.465  0.1313 -0.4816  0.0266
    1W        W64501  22.321   4.360   0.790 -0.1860  0.0394 -0.1244
    1W        W64502   3.599  22.222   0.083  0.3427  0.1480 -0.1210
    1W        W64503   0.407  11.993   1.526 -0.0007  0.0919 -0.0856
    1W        W64504  17.021  21.712   2.974  0.3280  0.1044  0.1638
    1W        W64505   2.298  16.245   1.084 -0.1134 -0.0319 -0.1469
    1W        W64506  21.138  21.020   3.263 -0.0179 -0.0567  0.1290
    1W        W64507  20.352   8.635   1.478  0.0998 -0.0279 -0.2557
    1W        W64508  21.127  23.058   9.075  0.0391 -0.0664  0.2444
    1W        W64509  19.312  27.901   2.363  0.1626 -0.1330 -0.1267
    1W        W64510  16.492   5.205   2.701 -0.1380 -0.0531  0.1887
    1W        W64511  20.399   9.839   7.093  0.1802  0.2922  0.1688
    1W        W64512   2.936   6.292   9.020 -0.0506 -0.1735 -0.2368
    1W        W64513  23.781   7.083   2.961 -0.1179 -0.0104 -0.0170
    1W        W64514  27.475  21.510   8.602 -0.0170  0.0689 -0.1191
    1W        W64515   3.877  26.804   8.167 -0.1839 -0.0062 -0.2441
    1W        W64516   7.571  15.566   9.149  0.0874  0.2539 -0.4444
    1W        W64517   3.895  29.718   8.497  0.2096 -0.1460 -0.2043
    1W        W64518  12.119   3.906   1.285  0.3528  0.1057 -0.1516
    1W        W64519  15.724   7.321   8.222 -0.1515  0.2970  0.0880
    1W        W64520  18.699  22.633   8.242 -0.2575 -0.2029 -0.1180
    1W        W64521  13.009   5.469   7.473 -0.2705  0.1029  0.1646
    1W        W64522  13.431   7.499   9.044  0.3493 -0.2124  0.0279
    1W        W64523  18.432   8.826   0.615  0.0830 -0.0001 -0.1203
    1W        W64524  16.165  23.300   7.263  0.0814  0.2044 -0.2059
    1W        W64525   5.198  28.007   0.221  0.2119 -0.1492 -0.5450
    1W        W64526   3.827   3.591   7.472  0.2514  0.2226  0.0812
    1W        W64527  16.426  20.930   8.508 -0.1194  0.1287  0.0238
    1W        W64528   7.219   9.043   0.427  0.0091  0.0586  0.0610
    1W        W64529   4.221   8.384   7.055  0.2128  0.0538  0.1734
    1W        W64530  26.771  23.703   1.157  0.1860 -0.0574  0.1009
    1W        W64531   3.202   2.977   6.337  0.0010 -0.4349  0.2291
    1W        W64532  26.466  22.736   8.302 -0.4389  0.3102 -0.0192
    1W        W64533  20.305   4.304   7.473 -0.2193  0.0739 -0.1896
    1W        W64534   3.752  20.784   0.216  0.1427  0.2237 -0.0370
    1W        W64535  11.516   9.002   7.653 -0.0120  0.1581  0.2264
    1W        W64536  17.557  11.869   0.651  0.0538  0.1883  0.0962
    1W        W64537   0.930   8.846   0.687 -0.0186  0.3963 -0.2957
    1W        W64538  22.957  18.844   0.390  0.2653  0.0560  0.0049
    1W        W64539  13.817  12.143   0.220  0.2106 -0.0960 -0.1411
    1W        W64540  26.659   0.259   9.151  0.4953  0.0859 -0.0188
    1W        W64541  27.774   1.119   1.469  0.0333  0.1930 -0.0258
    1W        W64542  14.898   0.643   8.121  0.2231 -0.4704 -0.1277
    1W        W64543  17.319  24.917   0.165 -0.1515 -0.0572  0.1474
    1W        W64544  27.702   4.947   7.256  0.0474 -0.1685 -0.0266
    1W        W64545  25.183  27.994   3.724 -0.3130  0.0890  0.0946
    1W        W64546  25.016  24.647   8.272  0.2742 -0.0351 -0.2499
    1W        W64547  19.588  22.085   0.436 -0.0474 -0.1585  0.0419
    1W        W64548   5.516   0.640   1.027 -0.0742  0.0009  0.0638
    1W        W64549   1.168  24.272   9.346 -0.2672 -0.1141 -0.0017
    1W        W64550  12.880  14.149   9.376 -0.0008 -0.0454 -0.0460
    1W        W64551  22.684  16.365   8.509 -0.1870  0.1560 -0.0958
    1W        W64552  25.466   2.269   7.687  0.3017  0.0903 -0.0338
    1W        W64553   0.882  16.713   5.767  0.1082  0.1225  0.1840
    1W        W64554   8.375  24.184   7.971 -0.4018  0.2191 -0.0131
    1W        W64555  11.297  10.279   1.448 -0.0573  0.0183 -0.3554
    1W        W64556   2.790   9.145   9.448  0.0707 -0.0257 -0.1351
    1W        W64557  25.645  10.417   6.917 -0.0158  0.0808 -0.1072
    1W        W64558  21.170   4.348   2.198  0.2385 -0.2832 -0.2431
    1W        W64559  20.053  12.856   8.068  0.1500 -0.2302  0.1406
    1W        W64560   2.218  16.835   1.204  0.0980 -0.0175  0.0457
    1W        W64561  24.625  20.507   8.474 -0.0457  0.1496  0.1150
    1W        W64562  14.561  28.822   8.770 -0.0685 -0.1162  0.1114
    1W        W64563  25.277  27.955   8.284  0.0677 -0.0859 -0.0398
    1W        W64564  11.003  17.427   7.458  0.2339 -0.1531 -0.1370
    1W        W64565   4.010  24.094   1.336  0.1045  0.1793  0.0297
    1W        W64566  25.681  25.673   0.164 -0.0103  0.0997  0.1039
    1W        W64567   9.858   2.501   0.746  0.2084 -0.1796 -0.3463
    1W        W64568  10.390  23.654   7.167 -0.0447  0.0256  0.4645
    1W        W64569  20.309  17.497   0.258 -0.1698  0.1192  0.2093
    1W        W64570  13.159  23.654   1.305 -0.3620  0.0998 -0.1350
    1W        W64571   7.603  16.393   0.999 -0.0064 -0.0484 -0.1156
    1W        W64572  24.460   9.774   6.504 -0.0627 -0.3232 -0.3119
    1W        W64573  14.472   6.540   2.323 -0.3031  0.3419 -0.2229
    1W        W64574   6.310   3.359   8.331 -0.3052  0.0789  0.1735
    1W        W64575  20.484  17.388   9.288  0.2900 -0.0186  0.1227
    1W        W64576   7.333  19.931   8.371 -0.2468  0.0956  0.1077
    1W        W64577  18.136  14.664   7.984 -0.1170  0.1685 -0.2002
    1W        W64578  12.449  28.879   8.249  0.2725  0.1985 -0.0492
    1W        W64579   5.977  21.426   0.429 -0.3076 -0.1846  0.0792
    1W        W64580   6.588  26.719   2.586  0.0655  0.1625  0.2381
    1W        W64581  12.298  20.648   1.318 -0.0663  0.3518  0.1634
    1W        W64582   7.753   1.811   2.611  0.2666 -0.1143 -0.2052
    1W        W64583  29.589  21.466   8.166  0.2493 -0.2110  0.2461
    1W        W64584   6.275  28.605   8.776  0.0137  0.1763 -0.2109
    1W        W64585  15.224  26.640   2.340 -0.1193  0.1380  0.0321
    1W        W64586   9.288  10.617   1.148 -0.1230  0.0954 -0.0612
    1W        W64587  12.996  26.076   9.235 -0.0871 -0.0056 -0.0123
    1W        W64588  22.753  17.663   2.727  0.0900  0.1184 -0.1473
    1W        W64589   5.997  10.382   7.368  0.0339  0.1011 -0.3328
    1W        W64590  12.094  24.143   7.587 -0.2130  0.1063  0.2449
    1W        W64591  29.686   9.595   1.612 -0.0264  0.3500 -0.0920
    1W        W64592   7.447  19.260   6.688 -0.0627 -0.0216  0.2039
    1W        W64593   1.979  13.261   6.875 -0.1951 -0.2686  0.0244
    1W        W64594  14.979  29.416   1.669  0.0185  0.0614  0.1194
    1W        W64595   4.787  29.063   8.379 -0.2967  0.2218  0.0580
    1W        W64596  20.351  28.611   7.275 -0.3836 -0.1423  0.1389
    1W        W64597  17.411   4.485   0.222  0.2122  0.5155 -0.1714
    1W        W64598  22.816  21.769   9.382  0.0614 -0.0347  0.0699
    1W        W64599  24.794  26.606   7.415  0.1691 -0.0722 -0.0690
    1W        W64600  12.283  22.503   6.912 -0.1316  0.1942  0.0486
    1W        W64601  18.149  20.353   2.030 -0.1159 -0.0842  0.0360
    1W        W64602  28.495  26.890   7.278 -0.1358  0.1293 -0.0182
    1W        W64603  24.249   8.272   6.987 -0.1724 -0.0062 -0.0857
    1W        W64604  21.523  28.578   2.356  0.1009 -0.2305  0.0142
    1W        W64605  12.422  22.033   2.367  0.1234  0.0177 -0.0531
    1W        W64606  19.721  17.950   7.423 -0.1609  0.0248  0.0654
    1W        W64607   4.829  11.747   2.156 -0.3349  0.3395 -0.3604
    1W        W64608   9.430  20.283   1.437  0.0363 -0.0173 -0.0087
    1W        W64609  28.196   3.215   3.485  0.2013 -0.1660 -0.0050
    1W        W64610   3.366   3.825   1.313  0.0225 -0.4006  0.0767
    1W        W64611   2.784  10.567   2.071  0.0468 -0.0645 -0.3502
    1W        W64612  19.870  25.835   1.741 -0.1957  0.0789 -0.0635
    1W        W64613  29.277  23.544   1.810 -0.0670  0.0844 -0.0620
    1W        W64614  27.728  11.457   9.327 -0.0310  0.4548 -0.0983
    1W        W64615   7.625  28.666   2.385  0.1425 -0.2118 -0.2577
    1W        W64616  11.312  12.397   0.151 -0.0821 -0.1688  0.1239
    1W        W64617  12.423  29.425   7.304  0.0900 -0.0850  0.4629
    1W        W64618   4.162  22.015   7.107 -0.0855 -0.3062  0.0900
    1W        W64619  19.367  26.932   2.573  0.0750  0.2631  0.1008
    1W        W64620  21.296  14.058   0.093 -0.1868  0.0333  0.0944
    1W        W64621   1.952  26.217   7.428  0.1175 -0.1915 -0.1345
    1W        W64622  29.102   3.572   7.349 -0.0169  0.0983  0.0147
    1W        W64623   2.017   9.723   8.441  0.2098  0.0202 -0.1045
    1W        W64624  12.767   8.846   9.020 -0.4004  0.1904  0.1643
    1W        W64625   1.133  17.199   1.730 -0.0570 -0.1118  0.2130
    1W        W64626   3.053   7.358   9.086  0.2776 -0.1299 -0.1064
    1W        W64627   2.614  15.708   8.095 -0.0229 -0.0730 -0.2989
    1W        W64628  18.448  11.919   6.828 -0.0117 -0.2083 -0.2830
    1W        W64629  21.931  14.584   7.391 -0.0266  0.1326 -0.4010
    1W        W64630   9.823  15.757   8.052  0.0871 -0.0104 -0.0052
    1W        W64631  18.239   6.856   0.734  0.0711 -0.0171  0.2091
    1W        W64632   4.662  19.738   7.979 -0.0644  0.3189 -0.1610
    1W        W64633   0.703   6.354   0.019  0.1618  0.3058  0.0744
    1W        W64634  24.655  28.271   0.262  0.0637 -0.1416  0.2178
    1W        W64635  21.764  12.213   7.630  0.1391 -0.2308 -0.2256
    1W        W64636   5.651  20.502   1.006  0.1092  0.1031  0.1664
    1W        W64637  21.235  26.033   2.271 -0.0700 -0.2129  0.1403
    1W        W64638  17.441   1.059   1.522 -0.1754  0.0851 -0.0799
    1W        W64639  26.243   9.540   9.149  0.1574  0.3903  0.2735
    1W        W64640  19.587  26.015   2.148 -0.0754 -0.0140 -0.1455
    1W        W64641   4.578   1.988   1.080  0.1476  0.0738 -0.0666
    1W        W64642  24.453  25.847   1.044 -0.0466 -0.1632  0.1223
    1W        W64643  27.211  26.696   0.709 -0.2828 -0.0036  0.1219
    1W        W64644  22.337  13.208   1.718 -0.1789 -0.2348  0.0595
    1W        W64645   4.898  12.293   1.480 -0.0401  0.2170  0.4846
    1W        W64646  22.675   5.362   7.025 -0.1039  0.2431  0.4148
    1W        W64647   8.058   2.143   0.083 -0.0838 -0.0342  0.2291
    1W        W64648  17.852   6.502   7.693 -0.0464 -0.2399  0.0774
    1W        W64649  20.717  19.094   0.192  0.1108 -0.1647 -0.3136
    1W        W64650  27.470  18.573   0.970  0.0541 -0.0745  0.0423
    1W        W64651  19.803  13.656   7.037  0.1970  0.0801 -0.3677
    1W        W64652  22.605  22.969   7.331  0.1825  0.2019 -0.1639
    1W        W64653  27.119   0.560   1.839  0.0734 -0.0133  0.1477
    1W        W64654   6.626  10.970   2.919  0.1557  0.0023  0.0985
    1W        W64655  13.466   0.147   2.182 -0.0126  0.2034 -0.0637
    1W        W64656   3.652  21.349   7.208  0.2274 -0.3521  0.1490
    1W        W64657  26.999  16.384   1.553 -0.0520 -0.3428 -0.2447
    1W        W64658  13.474  17.824   0.217 -0.0716 -0.1855  0.0641
    1W        W64659   1.701  10.447   2.033  0.2332  0.0196  0.2919
    1W        W64660  27.113  12.267   6.578  0.1518 -0.1039  0.0162
    1W        W64661  26.743  22.410   6.689 -0.1795 -0.3182 -0.0456
    1W        W64662  22.568  24.027   1.776 -0.3318 -0.3882  0.0730
    1W        W64663  29.082   6.714   2.107  0.1584 -0.1062  0.2403
    1W        W64664   4.860  22.591   6.738 -0.0700  0.1572 -0.1219
    1W        W64665   6.293   3.666   3.868 -0.0269  0.2494 -0.1531
    1W        W64666  22.326   0.439   9.159 -0.3338 -0.1856 -0.0946
    1W        W64667  20.194  20.309   0.637  0.2723 -0.0856  0.0132
    1W        W64668  16.364  11.796   6.688 -0.1074  0.0974 -0.2820
    1W        W64669  26.250  18.713   8.684 -0.0299  0.2058  0.1563
    1W        W64670  28.604  22.293   9.186  0.2993 -0.0090 -0.0429
    1W        W64671   3.029   6.012   7.061  0.1138  0.0864 -0.0870
    1W        W64672   8.368  25.742   7.454 -0.0112 -0.5671  0.0579
    1W        W64673  28.077  14.927   8.464  0.0563 -0.2350 -0.0529
    1W        W64674  16.739  29.515   8.025  0.0862  0.2215  0.0467
    1W        W64675  24.433  29.104   1.799 -0.1909  0.0926  0.0641
    1W        W64676   6.868  19.784   1.106 -0.1639 -0.0094 -0.1659
    1W        W64677   4.814  16.949   9.400 -0.0588  0.2986 -0.1431
    1W        W64678   4.562  24.904   7.895 -0.1296 -0.2610  0.1517
    1W        W64679  16.990   0.330   8.877  0.0462  0.2822 -0.0817
    1W        W64680   5.715   5.257   1.230 -0.0623 -0.1401  0.1565
    1W        W64681   0.264  27.987   1.163  0.0728  0.2446 -0.0377
    1W        W64682  26.005  14.921   6.257 -0.1146  0.1846 -0.2568
    1W        W64683   0.557   7.544   0.036  0.2694  0.0748 -0.1042
    1W        W64684  23.333   0.387   3.556 -0.0179  0.0543 -0.0187
    1W        W64685  14.963  19.947   9.067 -0.2996  0.0102  0.1368
    1W        W64686   1.788  10.641   0.445 -0.2853 -0.1631 -0.1293
    1W        W64687   8.820  19.132   1.675  0.1871  0.1057 -0.2230
    1W        W64688  22.126  15.794   1.892  0.1861  0.0890  0.1112
    1W        W64689  26.031   7.747   6.629 -0.2568 -0.1719 -0.0744
    1W        W64690  23.168   8.440   8.436  0.1029  0.0115 -0.1820
    1W        W64691  10.970   9.276   0.338  0.2514  0.0561 -0.1248
    1W        W64692   8.274  20.780   8.104  0.3174  0.1350  0.1699
    1W        W64693   3.556  16.057   1.933 -0.3028  0.2871  0.3257
    1W        W64694   6.758  25.547   9.352 -0.1396  0.3078  0.1204
    1W        W64695  11.420  14.718   7.285 -0.0281 -0.0567 -0.0066
    1W        W64696   2.043   6.231   3.012 -0.0476  0.0016  0.0135
    1W        W64697   3.308  13.638   6.970  0.1188 -0.0950 -0.0763
    1W        W64698   9.366  16.468   1.339 -0.0156  0.2829  0.0621
    1W        W64699  27.621  22.211   6.875 -0.3009  0.3430 -0.0338
    1W        W64700  20.225   9.815   9.323 -0.1023 -0.0425 -0.2809
    1W        W64701  18.889  18.775   1.077 -0.0969  0.1250 -0.0428
    1W        W64702  20.350  10.824   7.136  0.1333  0.1884 -0.2028
    1W        W64703  16.226   4.174   0.281  0.1135 -0.0957  0.1727
    1W        W64704  29.192  19.775   6.465 -0.0138 -0.0941 -0.1276
    1W        W64705  16.694  24.463   7.602  0.3996 -0.0442 -0.0132
    1W        W64706   6.007  21.937   8.374  0.0822  0.0480 -0.1521
    1W        W64707  18.066   8.343   7.696  0.1322  0.1042  0.1995
    1W        W64708  18.818  14.345   6.764  0.1827  0.1465 -0.0127
    1W        W64709  20.885  27.631   7.897 -0.0706 -0.1386  0.1785
    1W        W64710   7.457   7.194   0.926 -0.1132  0.0177  0.1336
    1W        W64711   6.339  16.529   6.462 -0.2792  0.0405 -0.0498
    1W        W64712  25.627   1.530   8.892 -0.0880 -0.0381  0.2326
    1W        W64713  18.463  22.755   2.290 -0.1478  0.0062  0.0595
    1W        W64714   8.939  15.201   1.135 -0.2539  0.0445 -0.0860
    1W        W64715  11.314  15.768   1.204  0.2229 -0.1373  0.2096
    1W        W64716  19.640  12.800   1.116 -0.0010 -0.5134 -0.1995
    1W        W64717   1.298   3.678   6.969  0.1630 -0.0234  0.2917
    1W        W64718  23.397  28.016   9.251 -0.0726 -0.0238  0.0400
    1W        W64719   0.986   6.617   8.554 -0.0710 -0.1318 -0.2979
    1W        W64720   6.948  21.322   0.552  0.1341  0.0104 -0.2331
    1W        W64721  14.988  11.326   7.003 -0.0601 -0.3151 -0.1996
    1W        W64722   7.544  13.278   9.050 -0.3229  0.1819  0.0756
    1W        W64723   7.511   2.217   1.183 -0.0017 -0.0436 -0.1093
    1W        W64724  24.874  17.836   1.348 -0.0382  0.0133 -0.3164
    1W        W64725   7.753  20.294   7.842  0.0931  0.3314  0.0651
    1W        W64726  21.559  21.925   7.659 -0.1789 -0.0879 -0.1745
    1W        W64727  17.347   5.035   6.602  0.1154  0.0689 -0.1416
    1W        W64728   7.999  28.691   9.005  0.1924 -0.1574 -0.1127
    1W        W64729  26.129  10.170   1.821 -0.3001 -0.0410  0.2345
    1W        W64730   5.201  29.283   8.008 -0.1941 -0.1451 -0.4358
    1W        W64731  19.733  29.132   2.488  0.1041 -0.2271 -0.0494
    1W        W64732  22.276  28.926   9.283 -0.1791  0.3233  0.0305
    1W        W64733  16.596  15.273   6.837 -0.0642  0.0784  0.5069
    1W        W64734   9.866  21.225   5.822  0.3795 -0.0319 -0.0667
    1W        W64735   1.837  19.698   6.859 -0.2508  0.1880  0.3265
    1W        W64736   9.586  24.474   7.160 -0.1495 -0.0368  0.2778
    1W        W64737  26.047  16.484   7.201 -0.1002 -0.1840  0.0071
    1W        W64738  24.244  14.601   7.014 -0.0176  0.1012  0.0893
    1W        W64739  25.269  28.676   7.781  0.2903 -0.1532  0.1085
    1W        W64740  18.624  28.465   2.514  0.0193  0.0901  0.2586
    1W        W64741  21.653   5.381   7.050  0.2560  0.1403  0.1556
    1W        W64742  20.283   7.912   0.011 -0.1642  0.2156  0.0045
    1W        W64743   8.161  19.587   6.893  0.0010  0.0699  0.0278
    1W        W64744   8.234   3.286   7.891  0.1979 -0.1284  0.0169
    1W        W64745  12.127  18.720   9.274  0.0736 -0.2191 -0.0597
    1W        W64746  25.424   5.819   8.289  0.2149 -0.0966 -0.3037
    1W        W64747  21.936  19.324   1.950 -0.3335  0.1125  0.0704
    1W        W64748  10.050  13.301   8.500 -0.0406  0.1415 -0.1304
    1W        W64749  10.147  26.766   9.276  0.0122  0.1249 -0.0778
    1W        W64750  17.754   0.173   9.420 -0.0211  0.0430  0.1735
    1W        W64751  19.734  15.191   8.506  0.1058  0.1821  0.0628
    1W        W64752  14.395  22.836   9.389 -0.0065 -0.0257  0.0614
    1W        W64753   2.703  29.208   7.594  0.1986 -0.0868 -0.1193
    1W        W64754   2.297  27.999   2.143 -0.2647 -0.1687 -0.0638
    1W        W64755  24.199  18.548   8.974  0.1731 -0.1602  0.1727
    1W        W64756  13.241   6.350   8.035 -0.1196 -0.4094  0.0485
    1W        W64757  22.319   4.895   8.662  0.3089 -0.3339 -0.0964
    1W        W64758  15.277  29.641   0.867  0.0854  0.0220 -0.0349
    1W        W64759  24.235  17.776   7.444 -0.1807  0.0630 -0.0921
    1W        W64760   3.813   6.983   9.000 -0.1337  0.1655  0.2792
    1W        W64761   8.108  26.360   8.969  0.0477  0.2492 -0.3456
    1W        W64762   9.294  21.643   6.394  0.1634  0.1350  0.1073
    1W        W64763  29.014  27.049   2.266  0.2085 -0.0087  0.1270
    1W        W64764  11.016   1.140   8.882  0.1148  0.1660  0.0387
    1W        W64765   1.113   0.646   1.638  0.0731 -0.2126  0.1029
    1W        W64766  28.308  23.837   6.601 -0.2347 -0.2300  0.0826
    1W        W64767   4.024  12.490   1.325  0.1358 -0.1689 -0.0970
    1W        W64768   0.407  12.661   2.059 -0.1335 -0.0716 -0.2766
    1W        W64769  27.061  15.487   0.714  0.1236  0.2181  0.1951
    1W        W64770   4.452  26.512   7.140 -0.0247 -0.1328  0.0745
    1W        W64771   9.981  18.514   0.036  0.0479 -0.0957 -0.0648
    1W        W64772   2.961  23.780   6.418 -0.1287 -0.0981 -0.0590
    1W        W64773   8.337   3.651   3.142 -0.0335  0.0452 -0.0109
    1W        W64774  19.045  15.244   9.268  0.1908 -0.1875  0.1171
    1W        W64775  29.693   7.496   7.694  0.0713 -0.0395 -0.1792
    1W        W64776   7.006   7.333   1.784 -0.1353 -0.1372 -0.0840
    1W        W64777  16.337  18.417   0.646 -0.3904  0.0278 -0.1436
    1W        W64778  10.124   2.590   1.565  0.2685  0.1301  0.0188
    1W        W64779  15.510   8.894   1.365  0.0128  0.0158 -0.2238
    1W        W64780   1.967  22.118   6.070 -0.2203 -0.2120 -0.1288
    1W        W64781  17.525  22.438   2.486 -0.3097 -0.2933  0.0333
    1W        W64782  11.931   8.048   8.344  0.2687  0.1419  0.0052
    1W        W64783  16.718   7.016   8.770  0.0215  0.1677  0.3446
    1W        W64784   6.792   1.902   9.304  0.2070 -0.0325 -0.0299
    1W        W64785  25.947  27.141   8.872 -0.2453  0.2490  0.1407
    1W        W64786  19.882  29.031   1.487  0.2015  0.0575  0.0344
    1W        W64787   0.288  29.069   2.353 -0.4220 -0.2260  0.0510
    1W        W64788  11.002   6.652   8.876 -0.0323 -0.2491  0.0503
    1W        W64789  27.730   4.229   8.544 -0.1759 -0.1555  0.3115
    1W        W64790  10.008  27.935   1.158 -0.2011 -0.0714  0.1482
    1W        W64791   2.850  10.206   1.371 -0.0684 -0.4278 -0.1522
    1W        W64792  11.000   6.951   2.208 -0.0087  0.1345 -0.1881
    1W        W64793  22.259  12.802   9.419 -0.0495 -0.0118  0.1326
    1W        W64794   0.180  13.287   0.956  0.0497 -0.1346  0.1170
    1W        W64795   3.217  25.602   1.947 -0.0126 -0.1598 -0.2560
    1W        W64796  23.036   7.008   6.288  0.2217  0.1912  0.0234
    1W        W64797  16.984   2.957   0.826  0.0046  0.3327 -0.5941
    1W        W64798   2.029  21.644   7.894  0.0068 -0.0116  0.1037
    1W        W64799  28.526  24.774   8.904 -0.0655 -0.1462 -0.1498
    1W        W64800   8.249  17.178   7.650 -0.1090 -0.1589 -0.0694
    1W        W64801  29.418   1.609   1.538 -0.0049  0.0317 -0.1179
    1W        W64802   5.109   9.390   0.996  0.4866 -0.2920  0.2780
    1W        W64803   3.546  12.008   7.847  0.1807  0.1182  0.4308
    1W        W64804   6.729  21.223   8.998  0.0432 -0.0414  0.0013
    1W        W64805   2.145   0.973   7.052 -0.3199  0.0457 -0.3367
    1W        W64806  10.770  15.148   0.031 -0.0786 -0.0722  0.3597
    1W        W64807  17.147  14.502   6.708  0.0366 -0.0152  0.0096
    1W        W64808  21.014   5.898   0.253 -0.0130 -0.2333 -0.0075
    1W        W64809  20.966  21.865   2.708 -0.1534 -0.1044 -0.0552
    1W        W64810  24.178  26.456   6.952 -0.1175  0.2034 -0.1909
    1W        W64811   5.464   7.629   0.325  0.0377 -0.2518 -0.1109
    1W        W64812  29.293  13.343   7.811 -0.0928  0.2102  0.0759
    1W        W64813  20.687   0.775   2.723 -0.1240  0.0943 -0.2687
    1W        W64814  23.028  14.425   1.673 -0.1967 -0.1544 -0.1412
    1W        W64815   7.464  24.543   8.959  0.0955  0.1098 -0.2855
    1W        W64816  11.463  17.983   6.720 -0.3369 -0.4857  0.0872
    1W        W64817  21.114   6.922   8.178  0.0929  0.0816 -0.2420
    1W        W64818   0.566  16.701   1.192  0.0184 -0.0616  0.1375
    1W        W64819   2.482  14.773   8.084  0.2634  0.0240  0.0483
    1W        W64820   5.036  29.787   7.788  0.0000 -0.4115  0.3945
    1W        W64821   3.573   6.326   1.059 -0.2989 -0.0782  0.1221
    1W        W64822  24.972   6.813   1.669  0.1303  0.2960  0.0807
    1W        W64823   9.431  13.434   1.820 -0.0884  0.0107 -0.0346
    1W        W64824  17.114   9.588   0.020 -0.1199 -0.1975  0.2720
    1W        W64825   5.575  13.836   0.071  0.1026  0.1737  0.0287
    1W        W64826   0.913   0.527   1.188 -0.0954  0.0234  0.0966
    1W        W64827  10.425  18.402   1.414  0.1156  0.0020 -0.0542
    1W        W64828  17.221  19.986   7.923  0.3816  0.1043  0.0181
    1W        W64829  11.682  10.944   0.196  0.0599  0.2156  0.1051
    1W        W64830  19.469   9.466   9.335 -0.1391  0.1377  0.1192
    1W        W64831   5.883  29.376   1.454 -0.5078  0.1562 -0.1068
    1W        W64832  15.685   1.325   9.425  0.0599 -0.1353  0.0632
    1W        W64833  26.501   9.134   9.127 -0.0796 -0.1712 -0.2534
    1W        W64834  23.870   0.451   6.953  0.1055  0.1161 -0.3606
    1W        W64835   1.457  18.876   6.657 -0.0148  0.1549  0.2131
    1W        W64836  27.590  18.927   1.409  0.2053 -0.0259 -0.3857
    1W        W64837  21.145  26.250   1.390  0.0794  0.1808 -0.2210
    1W        W64838  10.482  21.750   1.496  0.0615  0.0918 -0.2568
    1W        W64839   2.175  15.580   0.445 -0.3598  0.1765 -0.1387
    1W        W64840  17.925   9.747   9.013 -0.2117  0.0761 -0.0834
    1W        W64841  13.654  15.501   7.267  0.0624 -0.1047 -0.1404
    1W        W64842  17.693  27.636   1.915 -0.1141 -0.2459  0.1738
    1W        W64843   1.475  17.592   0.489  0.0761 -0.0858 -0.1480
    1W        W64844  12.278  21.770   0.957  0.2579 -0.3630  0.1073
    1W        W64845  25.169  12.515   6.642  0.2202  0.0271  0.2570
    1W        W64846   9.589   6.086   0.601  0.1378  0.0788 -0.0022
    1W        W64847   2.697   6.578   1.173 -0.1260  0.4547 -0.2127
    1W        W64848   4.764   6.547   3.040 -0.1255  0.1035  0.0658
    1W        W64849   7.381  27.577   1.468 -0.2342  0.0904 -0.3886
    1W        W64850   4.185  29.647   6.083 -0.0059 -0.2089 -0.0859
    1W        W64851  25.165   0.388   8.413 -0.1930  0.1771  0.1195
    1W        W64852  20.606   7.614   7.337 -0.0785  0.3530  0.1046
    1W        W64853  12.024  26.908   0.963 -0.3825  0.0500  0.0011
    1W        W64854  11.462  10.814   8.846 -0.0957  0.1635 -0.0707
    1W        W64855  12.299  19.258   1.247 -0.0970 -0.2587  0.1268
    1W        W64856  10.322  22.705   9.023  0.0680 -0.0761 -0.2798
    1W        W64857  23.961  26.280   1.343  0.0824  0.0527  0.1128
    1W        W64858   6.793  15.695   6.518 -0.1230  0.1095  0.3488
    1W        W64859  13.684  20.489   0.991  0.1280 -0.2484  0.0780
    1W        W64860  11.224  27.375   0.586  0.2337 -0.0687 -0.1565
    1W        W64861  27.694  10.981   8.994  0.2072  0.0320  0.0987
    1W        W64862  18.410  16.490   0.671  0.0247  0.0954 -0.0175
    1W        W64863   9.600  15.901   9.334 -0.1206  0.0597 -0.1261
    1W        W64864   8.248   3.293   2.588 -0.3297 -0.0541  0.2596
    1W        W64865  27.226   2.258   8.400  0.1791 -0.1617 -0.1314
    1W        W64866  20.081  10.961   2.161 -0.2158 -0.1010  0.0381
    1W        W64867   6.624   8.655   7.525  0.1746 -0.2812 -0.4552
    1W        W64868  26.145  25.577   0.566  0.0636 -0.0424  0.0657
    1W        W64869  18.250  12.775   7.064 -0.0424 -0.1232 -0.1677
    1W        W64870  29.153  10.683   0.880  0.0433  0.1393  0.3195
    1W        W64871   7.794  23.335   1.175 -0.2272  0.0164 -0.1774
    1W        W64872  26.316  21.364   0.661 -0.3135  0.0505  0.0197
    1W        W64873  11.362  26.005   2.896 -0.0837  0.1996  0.0074
    1W        W64874   8.329  10.799   9.241 -0.1585  0.4027  0.0249
    1W        W64875  11.704   2.155   7.659 -0.0031  0.0294 -0.0009
    1W        W64876  25.361   9.734   8.222  0.1454 -0.1345  0.1836
    1W        W64877   5.320  18.789   6.952 -0.1287  0.2045 -0.1931
    1W        W64878   0.482   5.989   8.704  0.0823  0.1924 -0.1866
    1W        W64879  26.634  13.721   1.986  0.1150 -0.2499  0.1371
    1W        W64880   6.508   6.566   7.110 -0.1460 -0.1165  0.1625
    1W        W64881   9.610   5.830   1.889 -0.1220  0.0431  0.1506
    1W        W64882  20.888   0.007   7.219 -0.1357  0.1436  0.0556
    1W        W64883   6.211  24.872   2.101 -0.0008 -0.0019  0.3149
    1W        W64884   8.099   2.988   1.256  0.1972  0.0554  0.0072
    1W        W64885   6.108  13.804   7.453 -0.1484 -0.0695 -0.0237
    1W        W64886   4.007  29.755   3.540 -0.1572  0.0019  0.0392
    1W        W64887  10.603  17.167   7.963 -0.2436 -0.4459  0.0264
    1W        W64888  28.647  20.864   0.591 -0.1872 -0.2096  0.2392
    1W        W64889   2.616   8.842   3.503  0.0417 -0.4519 -0.1691
    1W        W64890   6.563   7.486   9.299 -0.1874 -0.0800  0.2012
    1W        W64891  18.949  10.514   8.795 -0.1114 -0.2045  0.1049
    1W        W64892   8.680   4.618   9.289 -0.0450  0.2320  0.0240
    1W        W64893   9.879   2.995   0.568 -0.0410  0.0797 -0.2369
    1W        W64894  12.742  10.676   7.192 -0.2273  0.1700  0.2111
    1W        W64895  24.344  12.724   0.137  0.3270  0.1527  0.0490
    1W        W64896  19.219   4.498   2.190 -0.0237 -0.1652  0.1008
    1W        W64897  11.093   2.305   0.393  0.0119 -0.1643  0.1853
    1W        W64898   1.978  14.207   6.911  0.1242 -0.0734  0.2978
    1W        W64899   0.156  10.340   9.028  0.0557 -0.4389  0.1993
    1W        W64900  16.300  11.459   0.729 -0.2894 -0.0828 -0.0046
    1W        W64901  21.230  20.822   1.776  0.2878 -0.0356  0.0206
    1W        W64902  27.373   5.804   7.103  0.1005  0.2470  0.1957
    1W        W64903  16.180  13.857   1.064 -0.2001 -0.1140 -0.2177
    1W        W64904  24.011  26.849   8.993 -0.0786  0.0931 -0.1572
    1W        W64905  10.086  23.332   1.360  0.0868 -0.2816  0.0231
    1W        W64906  10.713   3.315   0.150  0.7393 -0.0872  0.1696
    1W        W64907  10.357  26.678   1.320 -0.2724 -0.1602 -0.1505
    1W        W64908  12.486  26.801   6.434 -0.0567 -0.0333 -0.0168
    1W        W64909  23.003  25.431   8.381  0.1531 -0.0669 -0.0921
    1W        W64910   5.828   6.795   8.285  0.0613 -0.0319  0.2595
    1W        W64911  24.071  27.710   0.569 -0.1036  0.0750 -0.0128
    1W        W64912   0.170   8.259   6.554 -0.1201 -0.0256 -0.0673
    1W        W64913   7.252   6.062   1.501  0.3264  0.2852 -0.0500
    1W        W64914  10.300  15.589   7.775  0.1109 -0.2073 -0.0622
    1W        W64915   9.256  23.088   8.885  0.3637  0.2007  0.0173
    1W        W64916  17.285  20.758   8.627 -0.0445 -0.0267  0.0467
    1W        W64917  28.593  26.782   9.451 -0.0712  0.1269 -0.0361
    1W        W64918  26.272  14.106   6.778  0.3072 -0.0862  0.0323
    1W        W64919  13.495  24.399   7.929 -0.2808  0.1742  0.1861
    1W        W64920  27.063   5.781   7.671  0.1421  0.2249 -0.2229
    1W        W64921   5.489  10.603   6.857 -0.1553  0.1280  0.0277
    1W        W64922   9.226  23.036   1.123 -0.0970  0.1250  0.1963
    1W        W64923  12.564   1.947   3.072  0.0688  0.1138  0.0405
    1W        W64924   2.178  26.803   0.289  0.1309  0.0312 -0.0731
    1W        W64925  14.275   7.101   7.333 -0.1525  0.0574 -0.0374
    1W        W64926   0.654   5.777   8.205 -0.0371  0.2751 -0.2520
    1W        W64927  25.824   0.818   1.400  0.1579 -0.1882  0.1328
    1W        W64928  14.131  28.357   6.601  0.0402 -0.3116  0.2596
    1W        W64929  20.685  15.251   2.408  0.0522 -0.1258  0.1084
    1W        W64930  18.853  22.662   9.389  0.2195  0.3495 -0.0269
    1W        W64931   1.812  14.030   6.452 -0.2978  0.2232 -0.0885
    1W        W64932   8.117   5.400   2.377 -0.1639 -0.1162  0.2229
    1W        W64933  27.445  11.635   8.337 -0.1160  0.0421  0.1787
    1W        W64934  19.597  26.236   1.722  0.2607 -0.1988 -0.1936
    1W        W64935  10.042   3.851   7.490  0.0449 -0.1887 -0.0790
    1W        W64936  20.536  28.157   2.194  0.0331 -0.3051 -0.3054
    1W        W64937   3.334   7.046   0.634 -0.0294  0.1558  0.1429
    1W        W64938   8.235  16.322   5.816  0.0860 -0.1526  0.1058
    1W        W64939  20.812   3.544   0.569 -0.1664  0.0431  0.2286
    1W        W64940  27.542   7.545   1.906  0.4232  0.0939 -0.1587
    1W        W64941   9.994   4.070   3.292  0.4436 -0.0446  0.0246
    1W        W64942  25.677   6.415   3.284 -0.1205 -0.0190  0.1206
    1W        W64943  21.429   2.146   9.317 -0.1322  0.0335  0.0111
    1W        W64944  23.210   1.402   1.106  0.0922 -0.1447 -0.0631
    1W        W64945  10.960  29.312   1.308 -0.2025 -0.0434  0.0958
    1W        W64946   8.126  28.774   8.279 -0.0618  0.2948 -0.0470
    1W        W64947   4.823   3.384   8.473  0.0075  0.1631 -0.2501
    1W        W64948  22.501  21.019   1.107 -0.1954 -0.2090 -0.1868
    1W        W64949  27.847  20.145   8.676  0.0102 -0.1282  0.0012
    1W        W64950  19.819  23.252   2.611 -0.1181  0.1303 -0.0606
    1W        W64951   8.146  23.441   0.078 -0.0080 -0.1070 -0.0557
    1W        W64952  20.001   4.924   8.042 -0.2065 -0.3195 -0.1906
    1W        W64953  14.000  24.335   0.850  0.1113 -0.1668 -0.0516
    1W        W64954  19.184  10.209   8.141  0.0881 -0.1260 -0.1779
    1W        W64955  16.150   1.257   3.030  0.0681  0.0367  0.0312
    1W        W64956   0.131  16.191   7.991  0.0025 -0.2348 -0.0810
    1W        W64957  18.818  11.776   7.076  0.1287 -0.1498  0.0845
    1W        W64958   2.276  17.718   1.121 -0.0820  0.1011  0.2890
    1W        W64959   6.233   4.564   0.987  0.0217 -0.1076  0.0725
    1W        W64960  19.515  12.089   1.695 -0.0204 -0.0191  0.3023
    1W        W64961   7.177  10.135   6.818  0.0020 -0.0587 -0.1009
    1W        W64962  20.270  28.627   1.520 -0.2665 -0.0302  0.3807
    1W        W64963  28.353  22.881   2.168 -0.0373  0.1043  0.4829
    1W        W64964   8.966   4.314   2.140 -0.4786  0.2229  0.0699
    1W        W64965  27.357   4.011   7.030 -0.0788  0.1984 -0.1453
    1W        W64966   4.085   6.954   7.721 -0.2275 -0.1046  0.1319
    1W        W64967   9.455  24.929   8.417 -0.1251  0.2996  0.2218
    1W        W64968   7.511  26.457   6.878 -0.0619  0.0526  0.1169
    1W        W64969   0.642   6.289   8.203 -0.2358  0.2608  0.1165
    1W        W64970  11.609  26.836   8.833 -0.1008 -0.2894  0.0508
    1W        W64971  27.832  23.781   6.929  0.0582 -0.0040 -0.1882
    1W        W64972  26.194  26.321   8.970 -0.0641 -0.1301  0.1889
    1W        W64973  18.525   9.960   7.565  0.0636 -0.1954  0.0391
    1W        W64974  27.249   1.646   0.837 -0.3529  0.2913 -0.0549
    1W        W64975  10.754  17.536   2.260  0.2693 -0.3262 -0.0760
    1W        W64976  14.165  19.016   1.970 -0.0407  0.2333 -0.1944
    1W        W64977  23.282   4.378   8.348  0.1387 -0.1106 -0.0618
    1W        W64978  11.643  18.919   0.041 -0.1035  0.0331 -0.0411
    1W        W64979   4.229   8.490   1.316 -0.1040  0.0892 -0.1750
    1W        W64980  18.100   8.758   7.375 -0.0884  0.0146  0.0114
    1W        W64981  14.813   8.986   9.213 -0.2377 -0.1990  0.1401
    1W        W64982  26.526  19.347   9.328 -0.1796  0.0542  0.0017
    1W        W64983  24.442   1.042   9.109  0.1327  0.0182  0.1513
    1W        W64984   4.092   1.963   0.254 -0.0026  0.1803 -0.1258
    1W        W64985   2.466   5.092   7.523 -0.2243  0.0106  0.0442
    1W        W64986   6.316  19.058   0.077  0.0853 -0.4952 -0.1702
    1W        W64987  23.902  18.318   7.410 -0.0728 -0.0782  0.1205
    1W        W64988  27.995   6.778   6.683 -0.3118 -0.3138  0.0232
    1W        W64989   2.990  12.743   8.119 -0.0227  0.2603  0.1205
    1W        W64990   3.243  16.161   1.328 -0.0909  0.3435 -0.0123
    1W        W64991  28.491  10.369   1.600 -0.2949  0.1485 -0.1190
    1W        W64992  24.244   4.819   1.789 -0.0530 -0.1681 -0.0785
    1W        W64993  23.183  17.797   1.845 -0.0359  0.2853 -0.3411
    1W        W64994   8.596  20.679   1.183  0.1072  0.1364  0.0311
    1W        W64995  16.420  27.661   1.263 -0.2761 -0.3229 -0.1136
    1W        W64996  29.582  29.334   1.494  0.4801  0.0782  0.0256
    1W        W64997  12.551   1.234   8.124 -0.0071 -0.3446  0.0425
    1W        W64998  24.615   2.324   8.857 -0.0448 -0.2736  0.2193
    1W        W64999   8.398  21.018   9.249 -0.2467  0.3415 -0.0590
    1W        W65000   8.982  22.780   1.577  0.0539 -0.0835 -0.0421
    1W        W65001  16.217  13.537   1.440  0.4046 -0.2276 -0.4230
    1W        W65002  25.224   2.556   7.339  0.0174 -0.2855  0.2236
    1W        W65003  19.377  26.210   8.267 -0.1467 -0.1565  0.0078
    1W        W65004  16.682   3.598   7.894  0.0365  0.1471 -0.0840
    1W        W65005   5.834   2.553   7.450 -0.1291  0.0816 -0.1644
    1W        W65006  27.320  14.399   7.375 -0.2748  0.0909  0.0958
    1W        W65007  20.648  28.220   8.576  0.2294 -0.0301  0.0197
    1W        W65008   8.814  20.878   8.332 -0.0453  0.1551  0.0238
    1W        W65009  18.494  20.971   2.565 -0.1707 -0.0191 -0.3787
    1W        W65010  22.009   5.745   9.274 -0.0814  0.0667 -0.2500
    1W        W65011   6.663  15.858   6.958 -0.3621  0.0007 -0.1634
    1W        W65012   7.767  22.528   7.075 -0.1113  0.1071  0.0306
    1W        W65013  28.344   3.488   7.878  0.0187  0.1630 -0.1885
    1W        W65014  13.639  18.354   2.040  0.0550  0.0030 -0.1927
    1W        W65015  28.539   3.887   1.415 -0.0537 -0.3726 -0.1325
    1W        W65016   2.593  25.727   5.666  0.0142 -0.2983  0.3830
    1W        W65017  26.777  26.369   1.323  0.1453  0.0062  0.1661
    1W        W65018   9.136  19.485   9.331  0.0188 -0.1027  0.0278
    1W        W65019  26.574  14.395   1.425 -0.0197  0.2845  0.4559
    1W        W65020  28.356  10.733   7.136  0.1083 -0.0837 -0.0351
    1W        W65021   0.851   2.463   1.257  0.2213  0.1548  0.2809
    1W        W65022   1.864   5.573   8.245  0.0049  0.0219  0.0863
    1W        W65023   9.833  22.271   6.644  0.1577  0.1056  0.2362
    1W        W65024  23.936  14.019   2.157 -0.0031 -0.2994  0.1686
    1W        W65025   9.665   7.722   2.644 -0.1136  0.3144 -0.2356
    1W        W65026  13.291   2.562   2.095 -0.0602 -0.0604  0.5166
    1W        W65027  21.576   8.029   8.016  0.1824 -0.2654 -0.0586
    1W        W65028   8.642  20.783   7.699 -0.0784 -0.1470 -0.4260
    1W        W65029  20.552   9.594   1.912 -0.4222 -0.0861 -0.0453
    1W        W65030   6.113  21.862   0.089 -0.1170 -0.1909 -0.3483
    1W        W65031  18.934  19.092   7.826  0.0964  0.2097 -0.0624
    1W        W65032  24.298  29.228   1.175  0.0069  0.1818  0.2935
    1W        W65033  21.463  23.044   2.832 -0.0799  0.0016  0.0411
    1W        W65034  12.214  10.634   1.617 -0.1279 -0.1363  0.0930
    1W        W65035  27.096   8.908   1.644  0.0349 -0.0697  0.2587
    1W        W65036  21.503  21.987   1.371  0.1166  0.1612 -0.3997
    1W        W65037  12.945  19.350   7.485  0.0831  0.1350  0.1275
    1W        W65038  10.099  18.938   7.843 -0.1728 -0.3336  0.0492
    1W        W65039   0.142  13.727   8.544  0.0656  0.1172 -0.0827
    1W        W65040   6.549   3.725   9.361  0.1643  0.2261 -0.1239
    1W        W65041   7.232  24.845   2.622  0.0660 -0.1874 -0.0301
    1W        W65042  12.913  27.496   9.090  0.0384  0.1462  0.0551
    1W        W65043   0.164  21.598   8.418  0.1204  0.0242 -0.1894
    1W        W65044  27.220  15.520   6.351  0.0696 -0.1769  0.2379
    1W        W65045   5.724  16.725   0.500  0.3058 -0.1254  0.0923
    1W        W65046   3.550  14.492   9.234  0.0755 -0.0392 -0.0749
    1W        W65047   1.797  15.572   1.316  0.2760  0.1704 -0.0551
    1W        W65048  15.423   9.016   7.628 -0.0241  0.0539 -0.2135
    1W        W65049  13.826   2.773   1.475 -0.0584  0.2773  0.4369
    1W        W65050   2.448   3.027   3.720 -0.2438  0.1509  0.1222
    1W        W65051   5.938   4.733   0.395  0.1278  0.3299 -0.1369
    1W        W65052   1.585  20.528   0.129 -0.3418  0.0077 -0.0020
    1W        W65053  24.658  28.417   1.211 -0.1394 -0.1126  0.2709
    1W        W65054   0.991  25.884   8.778  0.3193 -0.1367  0.1649
    1W        W65055  20.778  22.379   2.546  0.2557 -0.2129 -0.1644
    1W        W65056  16.990  22.952   1.755  0.0686  0.0525  0.0321
    1W        W65057  27.383  10.895   1.571 -0.0013  0.1461 -0.3866
    1W        W65058  29.733  25.562   7.103 -0.3901 -0.1428  0.2990
    1W        W65059   2.687   5.459   2.829  0.1011 -0.1422 -0.0084
    1W        W65060  27.292   4.535   1.338  0.2216 -0.4727 -0.0258
    1W        W65061  22.463  18.717   2.417  0.3816 -0.1655 -0.3638
    1W        W65062  24.659   1.854   1.002  0.3415 -0.1996  0.2667
    1W        W65063  26.186  29.099   1.416 -0.0199 -0.0941  0.0809
    1W        W65064   1.824  28.775   0.519  0.0345  0.0683 -0.0872
    1W        W65065  27.133   7.970   6.737 -0.0442  0.2036 -0.3277
    1W        W65066   4.608   0.264   8.166  0.1343  0.0235  0.0283
    1W        W65067  22.554  16.714   7.478  0.1602  0.1680  0.0043
    1W        W65068  20.921  23.426   8.820  0.0538  0.0226  0.1686
    1W        W65069   3.056  23.576   8.604 -0.1018  0.1751  0.1282
    1W        W65070  25.710   0.231   6.662  0.2538  0.0234  0.3881
    1W        W65071  14.216  20.069   9.279  0.1364 -0.0666  0.4182
    1W        W65072   1.038  17.772   8.359 -0.0132 -0.3159  0.0263
    1W        W65073  10.209  23.051   7.137  0.2667  0.2739  0.0104
    1W        W65074  13.992  15.683   8.647 -0.2639 -0.1230  0.1701
    1W        W65075  12.022   9.126   2.506  0.3577 -0.1979 -0.0007
    1W        W65076  22.276   6.509   1.926  0.1647  0.0765  0.2666
    1W        W65077  10.931   2.597   0.771  0.0560 -0.0612  0.3843
    1W        W65078  25.582  10.420   1.105  0.0903 -0.1676 -0.1270
    1W        W65079  14.531  20.166   7.828 -0.2147  0.2687  0.1781
    1W        W65080  26.360   5.564   7.168  0.0651 -0.0417  0.2790
    1W        W65081  17.906   1.325   1.320  0.0473 -0.0534 -0.0414
    1W        W65082  14.797  25.910   1.573 -0.2675 -0.1639 -0.3411
    1W        W65083   5.297   6.941   2.471 -0.1645 -0.3495  0.1789
    1W        W65084   7.156  11.972   7.962  0.0412  0.0267 -0.2101
    1W        W65085   8.078  10.491   2.859 -0.1364  0.5338  0.1568
    1W        W65086  14.357  17.144   0.406 -0.1961 -0.1781 -0.3131
    1W        W65087   6.653  15.476   1.524 -0.0872 -0.1708  0.1395
    1W        W65088   6.057  25.937   1.151  0.0815  0.1258 -0.2055
    1W        W65089   6.591  23.354   1.414 -0.3508  0.0688  0.0528
    1W        W65090   6.777  11.207   8.202 -0.1900  0.1293  0.0434
    1W        W65091  17.766  28.478   7.763 -0.0017 -0.1073  0.0497
    1W        W65092  29.527   1.666   2.427  0.1059 -0.1163  0.0481
    1W        W65093  29.748  21.911   2.765 -0.1528 -0.0642 -0.0172
    1W        W65094  23.395   6.528   9.416 -0.1748  0.0502 -0.1976
    1W        W65095  22.653  26.452   8.143  0.1076 -0.1028  0.2083
    1W        W65096  25.421   3.823   6.089 -0.0378  0.1303  0.0130
    1W        W65097  24.306  16.889   1.601 -0.2297  0.0817  0.1267
    1W        W65098  15.210  12.141   8.379  0.1757  0.2917 -0.2236
    1W        W65099  13.418   8.438   1.120 -0.0907  0.2420 -0.2873
    1W        W65100   8.648  22.813   6.358 -0.0490 -0.0542  0.2218
    1W        W65101  21.758  16.787   2.196 -0.3595 -0.0553  0.4908
    1W        W65102  12.632   7.831   1.217 -0.3190 -0.0598  0.1259
    1W        W65103  12.123   5.430   2.662 -0.2158  0.0718  0.1026
    1W        W65104  20.721  26.753   2.456  0.2670 -0.0451  0.2246
    1W        W65105   6.626  11.862   2.014  0.0447 -0.1801  0.4632
    1W        W65106   1.652  11.087   0.310  0.1247  0.2993  0.0194
    1W        W65107   9.094   5.090   7.871  0.0531 -0.1544 -0.2033
    1W        W65108  15.828  26.559   7.903  0.1591  0.1810  0.0346
    1W        W65109  10.262   8.609   0.848  0.0954  0.0771 -0.3405
    1W        W65110  17.795  26.330   2.420  0.0080 -0.3363  0.1610
    1W        W65111   9.706   0.323   9.222  0.1106 -0.3056 -0.0481
    1W        W65112  17.050  27.074   7.863 -0.3049  0.1738 -0.0225
    1W        W65113  11.064  24.775   6.845 -0.4694 -0.0687 -0.0388
    1W        W65114  10.660   1.123   2.752  0.1783  0.0230  0.0245
    1W        W65115  11.906   1.918   2.316  0.1185 -0.3171  0.2638
    1W        W65116   8.396   0.891   3.108 -0.2238  0.0825 -0.3439
    1W        W65117   1.383   1.967   1.493  0.1365  0.0675 -0.4209
    1W        W65118   6.421   9.727   2.273  0.0741 -0.1536 -0.2069
    1W        W65119  16.417   1.219   8.631 -0.2509 -0.1876  0.1149
    1W        W65120  27.274  18.378   6.367  0.4013 -0.1187  0.1544
    1W        W65121   4.113   7.037   9.412  0.0816 -0.2357 -0.3331
    1W        W65122  20.571  19.061   7.742 -0.3936 -0.2977  0.3792
    1W        W65123  12.075  21.247   8.773 -0.2900  0.1676  0.2536
    1W        W65124  25.088   1.435   8.755 -0.0525  0.0890 -0.1302
    1W        W65125  22.393  24.908   0.705 -0.0226 -0.0039 -0.1378
    1W        W65126  12.027  11.223   1.560  0.3474 -0.1247  0.0368
    1W        W65127  28.396  16.880   0.715 -0.2103 -0.2189  0.1583
    1W        W65128  18.034  13.428   8.012 -0.1259  0.1725  0.2900
    1W        W65129  16.143   3.244   8.596 -0.1551  0.1102  0.2603
    1W        W65130   2.048   7.209   7.669  0.5590 -0.1268 -0.2586
    1W        W65131  14.443  11.855   1.407  0.1568 -0.1724  0.0883
    1W        W65132  13.009   4.804   9.006  0.1297 -0.0192  0.1673
    1W        W65133   7.146   2.429   3.614 -0.0734  0.0297 -0.2950
    1W        W65134  14.577   5.241   7.200  0.2491 -0.0106  0.0926
    1W        W65135  24.283   0.632   7.748 -0.0127  0.3890 -0.2521
    1W        W65136  16.739  11.390   1.067  0.0836 -0.0661 -0.2491
    1W        W65137   6.912  22.502   9.421 -0.0984  0.0483  0.2061
    1W        W65138  25.490   4.156   1.015  0.0832  0.1737  0.2641
    1W        W65139  26.642   6.561   0.591 -0.1850 -0.1026 -0.1587
    1W        W65140  19.806  17.456   8.090  0.0965  0.3525  0.0613
    1W        W65141   2.715  16.028   1.247 -0.2479 -0.1308  0.2973
    1W        W65142   9.673  16.746   0.512  0.0227 -0.0324 -0.1301
    1W        W65143   7.364   2.398   2.055  0.4484 -0.0170 -0.0326
    1W        W65144   7.602   4.458   7.907  0.1744  0.2386 -0.1797
    1W        W65145  27.706  14.020   0.240 -0.0729  0.0256 -0.1990
    1W        W65146  18.369   7.119   1.176  0.0204 -0.2352 -0.3923
    1W        W65147  29.565   6.364   1.205 -0.0983  0.3368 -0.1422
    1W        W65148   4.834  25.878   7.870 -0.0038  0.0589  0.2517
    1W        W65149  16.420  10.139   7.572 -0.0431  0.1656 -0.1837
    1W        W65150  11.949  25.044   1.941 -0.1285  0.1096 -0.3322
    1W        W65151  22.657  25.047   0.295 -0.0684 -0.1995 -0.0474
    1W        W65152  23.517  21.009   8.189 -0.1033  0.2699  0.1369
    1W        W65153   7.425  21.351   7.333  0.1475  0.0559 -0.0874
    1W        W65154   6.158  17.396   9.151 -0.0074 -0.2769 -0.3956
    1W        W65155   6.149  25.612   2.131 -0.1294  0.2648 -0.0711
    1W        W65156  13.439   9.124   1.755  0.1059  0.2215 -0.1306
    1W        W65157  15.264   2.203   0.243  0.1745 -0.3839 -0.1793
    1W        W65158  17.652  23.212   1.224 -0.2397  0.0869 -0.0925
    1W        W65159  28.295   7.456   2.143 -0.2221  0.0648  0.0039
    1W        W65160   3.391  23.968   2.071  0.0455  0.0353  0.2514
    1W        W65161  21.453  27.930   1.253 -0.0245  0.1481 -0.4455
    1W        W65162   4.536   1.184   0.861  0.0833 -0.1375  0.1290
    1W        W65163  11.060   7.889   0.497 -0.0295  0.0059  0.0910
    1W        W65164  17.090  18.038   0.868  0.0090  0.4119  0.1823
    1W        W65165  15.371   4.613   2.042 -0.1086 -0.1693 -0.2435
    1W        W65166  12.979  29.413   8.715  0.0297 -0.0608 -0.1771
    1W        W65167   3.587  26.813   1.641  0.2456 -0.3151  0.2211
    1W        W65168  28.443   4.615   0.140  0.1370 -0.3229  0.1701
    1W        W65169  11.243  11.914   1.379  0.2040  0.0235 -0.2708
    1W        W65170   1.425  10.767   0.777 -0.0503 -0.0082  0.1734
    1W        W65171  27.104  23.981   7.310  0.2470  0.1419 -0.0887
    1W        W65172   7.704  16.161   6.014 -0.3438 -0.0270  0.0227
    1W        W65173  26.435   8.575   2.207  0.2540  0.2009  0.1202
    1W        W65174  29.769  25.607   0.416  0.2733  0.0765 -0.0233
    1W        W65175  23.695  12.503   8.841  0.0298  0.0275 -0.1408
    1W        W65176  26.345  10.976   1.437 -0.0214 -0.2977 -0.1181
    1W        W65177  13.819   4.483   1.742  0.0952  0.0566 -0.1051
    1W        W65178  27.355  22.255   8.740 -0.0100 -0.0890 -0.1610
    1W        W65179  18.829  28.046   8.855  0.1262  0.2558 -0.3630
    1W        W65180  16.928  15.398   1.859 -0.0449  0.1060 -0.3979
    1W        W65181  15.147  27.146   1.112  0.1709  0.0500 -0.3286
    1W        W65182   5.861  24.614   0.249  0.0434  0.1319  0.1026
    1W        W65183   5.666   2.579   0.448  0.0196 -0.1657 -0.1262
    1W        W65184  10.554  22.225   9.239  0.1156 -0.1525  0.1285
    1W        W65185   8.137   1.481   0.168 -0.0712  0.0952 -0.0472
    1W        W65186  26.254   8.453   2.661 -0.4363  0.2008 -0.0118
    1W        W65187   6.264  15.955   8.615  0.1417  0.1810 -0.1790
    1W        W65188   1.059  17.154   7.156 -0.0217 -0.2420 -0.1380
    1W        W65189  17.786   8.018   8.005  0.0496  0.2807  0.1521
    1W        W65190   3.690  14.405   7.863 -0.1941 -0.0769  0.0265
    1W        W65191   4.220  20.302   1.780 -0.2417  0.0367 -0.2152
    1W        W65192  26.901   3.972   7.906  0.0738 -0.4053  0.0122
    1W        W65193  27.104  28.079   1.189 -0.0754  0.0665  0.3454
    1W        W65194  27.071  21.486   1.388  0.0183 -0.0492  0.1289
    1W        W65195  16.145  19.054   9.032  0.2455  0.1665  0.2320
    1W        W65196  17.695   3.400   1.070 -0.0107 -0.2111  0.0189
    1W        W65197  29.540  12.070   9.076  0.1582  0.2498 -0.0210
    1W        W65198   4.584  14.563   7.954 -0.4197 -0.2538  0.0136
    1W        W65199   4.819  29.441   8.653  0.1532 -0.1140 -0.0759
    1W        W65200  12.753  29.604   0.860 -0.1181 -0.0230 -0.5019
    1W        W65201  15.683  12.543   9.080  0.1513  0.0686 -0.2343
    1W        W65202   4.804  11.856   8.686 -0.0274  0.1657  0.0506
    1W        W65203  25.742  20.284   7.264 -0.3261  0.0445  0.0108
    1W        W65204   6.672   8.181   8.669 -0.1819  0.0300 -0.0774
    1W        W65205   1.343  13.985   0.894 -0.0354  0.2235 -0.1091
    1W        W65206   4.206  15.616   7.208  0.1451  0.1008 -0.2627
    1W        W65207  25.495  12.850   1.342  0.2896  0.1284  0.1021
    1W        W65208   9.712  28.413   1.061  0.1801 -0.3291  0.1991
    1W        W65209  11.150  22.314   7.102  0.3804 -0.0857  0.0971
    1W        W65210   7.446  28.277   3.271 -0.1409 -0.0138 -0.0222
    1W        W65211  23.074   9.854   6.237 -0.2944 -0.0075 -0.0198
    1W        W65212  24.342   8.175   9.114  0.0980 -0.0018  0.3919
    1W        W65213  25.631  11.490   1.938 -0.1901  0.2143  0.1290
    1W        W65214  10.989  23.531   9.242 -0.1245  0.2041 -0.0598
    1W        W65215   2.113  18.418   9.090  0.0972  0.0521 -0.0473
    1W        W65216  22.856  20.945   2.060 -0.0025 -0.0502 -0.1042
    1W        W65217   2.284  14.197   8.776  0.1314  0.0972 -0.0481
    1W        W65218  26.785  10.417   6.634  0.1733 -0.1409 -0.1707
    1W        W65219  29.614  19.930   6.216  0.0544  0.0185  0.1190
    1W        W65220   4.296  24.046   6.106 -0.1675 -0.0111 -0.0105
    1W        W65221  10.628   2.629   3.351  0.2707 -0.0646 -0.0472
    1W        W65222  11.884  17.100   7.037  0.1988  0.3219  0.1135
    1W        W65223  15.337  25.886   1.614  0.5456 -0.0510 -0.0938
    1W        W65224  19.787  27.749   2.496  0.1191  0.1561  0.2468
    1W        W65225   7.300  28.749   2.954 -0.2843  0.3145 -0.2123
    1W        W65226  24.956  11.758   7.535 -0.0098  0.0151  0.0367
    1W        W65227  19.956   5.815   1.135 -0.0024  0.0729 -0.3501
    1W        W65228  25.133   4.054   7.416  0.1139  0.0045  0.1589
    1W        W65229   9.354  18.577   8.993 -0.1615  0.3832  0.0437
    1W        W65230   0.565   6.445   8.974 -0.0735  0.0087  0.3579
    1W        W65231   1.073  10.526   7.764 -0.1859 -0.0768  0.0293
    1W        W65232  17.384   0.183   3.136  0.7730 -0.1884  0.1810
    1W        W65233  23.092  13.642   6.868 -0.0333  0.0638  0.0775
    1W        W65234  26.922  18.398   7.982 -0.1627 -0.1485 -0.1506
    1W        W65235  12.742   4.002   3.011 -0.1091  0.3288  0.0134
    1W        W65236   0.061  29.488   6.271 -0.1143 -0.0943 -0.0640
    1W        W65237  26.965  24.342   3.414 -0.2286 -0.4645 -0.1332
    1W        W65238   0.516   6.301   1.949  0.0249  0.0137  0.1227
    1W        W65239  23.801  26.341   2.628 -0.0267  0.1343  0.0444
    1W        W65240  22.522  20.327   1.704  0.1398 -0.0816  0.1662
    1W        W65241  15.371   1.759   1.576  0.1957  0.1266 -0.0397
    1W        W65242  28.342  16.650   0.091  0.1590 -0.3921 -0.1938
    1W        W65243  23.092  24.473   8.329 -0.0075  0.0969 -0.1409
    1W        W65244  28.043  29.508   1.728  0.0052 -0.1128  0.1669
    1W        W65245  24.785  26.241   6.061 -0.2310 -0.0480 -0.1954
    1W        W65246  20.701  20.589   2.566 -0.1710 -0.1259  0.3030
    1W        W65247  15.248   2.259   8.694  0.1622 -0.2007  0.0233
    1W        W65248  25.537  21.883   1.640 -0.0014 -0.0885 -0.1568
    1W        W65249  24.815  22.971   2.133 -0.3560 -0.1156  0.0056
    1W        W65250  26.358  14.627   6.911 -0.0452 -0.0386 -0.0063
    1W        W65251  21.278   0.796   6.469  0.0926 -0.5289  0.1106
    1W        W65252   7.839   6.941   0.087 -0.1323 -0.1389 -0.1941
    1W        W65253  14.060  19.247   8.078 -0.0608 -0.1140 -0.0490
    1W        W65254   5.307  28.797   1.948  0.3135 -0.4104 -0.1575
    1W        W65255   0.255   9.932   2.437 -0.0207 -0.1354 -0.0799
    1W        W65256  17.337   1.582   0.015 -0.3139 -0.2703 -0.0841
    1W        W65257  19.690  25.641   7.313 -0.1841 -0.0498 -0.2830
    1W        W65258  15.980  20.885   0.629  0.1501  0.1766 -0.2063
    1W        W65259   4.522  15.180   7.157  0.1680 -0.2206  0.3466
    1W        W65260  11.263  24.253   1.801 -0.0957 -0.1997  0.0430
    1W        W65261   6.340   2.841   9.041 -0.1247 -0.0833 -0.1770
    1W        W65262  24.196  25.314   1.794  0.1868 -0.0569 -0.1702
    1W        W65263   3.203  18.192   0.791 -0.2469 -0.1747  0.1511
    1W        W65264   3.576   0.623   6.855  0.1920  0.3831  0.1003
    1W        W65265  13.699  25.881   2.020  0.2126  0.1057 -0.1350
    1W        W65266  22.016  24.791   0.426 -0.2074 -0.0665  0.2755
    1W        W65267  11.584  11.720   0.474 -0.0100 -0.2922  0.0274
    1W        W65268   4.526   9.706   2.986  0.1426  0.2531  0.2011
    1W        W65269   6.540   6.118   7.762 -0.0383  0.2018 -0.0291
    1W        W65270   3.715  11.058   2.299 -0.2945 -0.0713  0.2107
    1W        W65271  21.845  27.829   2.955  0.3351  0.5079 -0.2088
    1W        W65272   8.676  18.644   1.721 -0.2083 -0.1237  0.2337
    1W        W65273  16.503   5.687   1.990 -0.0781  0.2388  0.0971
    1W        W65274  20.004   7.919   1.056  0.0941 -0.2824  0.1244
    1W        W65275  20.428  11.121   6.685  0.1337  0.0583  0.1469
    1W        W65276  19.560   7.239   9.305  0.2701  0.2920 -0.2183
    1W        W65277   7.116  18.316   2.464 -0.1423 -0.0083  0.1720
    1W        W65278  26.539  29.582   9.352  0.0257 -0.1293  0.3874
    1W        W65279   0.798  27.295   8.011  0.0155 -0.1307  0.2590
    1W        W65280  14.017  26.853   9.270 -0.2378  0.0765  0.0556
    1W        W65281  18.472  28.844   1.949 -0.1763 -0.0797  0.1717
    1W        W65282  27.364  25.191   0.359  0.1213 -0.1212 -0.0314
    1W        W65283  21.639   2.639   3.369  0.0757 -0.3047 -0.2504
    1W        W65284  10.114  21.376   1.099 -0.0761  0.2030  0.2393
    1W        W65285   1.814   2.295   8.759 -0.1303 -0.2122 -0.0381
    1W        W65286  10.419  17.387   1.560 -0.1717 -0.1186 -0.0198
    1W        W65287  21.285  14.379   0.516  0.0576  0.1266  0.0520
    1W        W65288  22.025   6.239   6.846  0.1800  0.1713 -0.3213
    1W        W65289  15.492   1.390   8.445 -0.0661  0.2442  0.0162
    1W        W65290  20.288  12.688   6.810  0.1279 -0.0722  0.2359
    1W        W65291  18.912  12.070   0.838 -0.0258  0.1089  0.1416
    1W        W65292  12.190   2.903   7.965  0.1434  0.1542 -0.1276
    1W        W65293  24.947   5.814   1.645 -0.0195 -0.4433  0.0889
    1W        W65294   4.253  19.991   1.296 -0.2126  0.0490  0.2349
    1W        W65295   7.201  27.210   2.932  0.1502 -0.3852  0.0777
    1W        W65296  28.502   6.369   1.578  0.1974  0.0670  0.1799
    1W        W65297   4.519  26.097   6.851  0.0102  0.2219  0.4027
    1W        W65298  26.639  21.374   7.053  0.1506 -0.2299  0.1224
    1W        W65299  29.206  26.636   2.055  0.1934 -0.1441 -0.2395
    1W        W65300   3.143  13.349   1.734  0.6070 -0.1596 -0.0513
    1W        W65301   6.623  11.061   0.759 -0.3153 -0.3757 -0.3239
    1W        W65302  25.000  16.574   8.595 -0.2642 -0.2806 -0.1745
    1W        W65303  22.048   8.962   7.978 -0.1065  0.2963 -0.0988
    1W        W65304   3.865   2.856   0.429  0.3293 -0.1167 -0.0676
    1W        W65305  28.070   8.602   8.813  0.0357  0.2904  0.0901
    1W        W65306  24.498   6.016   2.440  0.0524 -0.1196  0.1217
    1W        W65307  27.028   0.445   7.887  0.2052  0.0635 -0.1075
    1W        W65308  24.312  25.373   0.213  0.0622 -0.0795  0.2059
    1W        W65309   9.853  15.375   7.768 -0.2713 -0.0325  0.0187
    1W        W65310  26.974  14.165   5.751  0.2917  0.0036 -0.3027
    1W        W65311   2.197   5.255   6.671  0.0260  0.3945 -0.2677
    1W        W65312  27.316  12.290   9.194 -0.2652 -0.0927  0.1042
    1W        W65313  28.096  28.961   7.753  0.0735  0.0708 -0.2444
    1W        W65314   1.729  24.313   9.018 -0.2227 -0.0388 -0.0303
    1W        W65315  15.764   2.950   8.171 -0.0383 -0.0855 -0.1468
    1W        W65316  26.243   5.106   8.037 -0.0355 -0.2736  0.0522
    1W        W65317   3.962  13.962   6.608  0.1294 -0.0061 -0.2033
    1W        W65318   1.000  22.714   7.271  0.0931 -0.1963 -0.1861
    1W        W65319  23.049  25.973   2.233 -0.1466  0.2970 -0.2240
    1W        W65320  27.977  28.086   1.588  0.2068 -0.1254 -0.2351
    1W        W65321  27.994   5.581   3.127 -0.2601 -0.0340 -0.0595
    1W        W65322  21.226   1.602   0.810  0.1956 -0.1108 -0.0643
    1W        W65323  19.899  22.499   1.212 -0.2552 -0.2469  0.0658
    1W        W65324  26.651   2.314   9.098 -0.1254 -0.1328 -0.0025
    1W        W65325  13.395  14.148   2.114 -0.0052  0.1419  0.1681
    1W        W65326  29.090  22.384   6.921  0.2576 -0.1148 -0.0885
    1W        W65327  14.691  21.673   8.803  0.1082 -0.1418  0.3604
    1W        W65328  14.956  25.093   1.066 -0.1304  0.2724  0.2376
    1W        W65329   3.356  15.487   7.606  0.1340 -0.0393 -0.0584
    1W        W65330  14.660   1.672   2.117  0.2203  0.0269  0.1464
    1W        W65331   6.898  25.901   0.748  0.1694  0.0794 -0.0307
    1W        W65332   3.251   6.513   8.557  0.3587 -0.1066 -0.0680
    1W        W65333  23.572   4.649   7.359  0.0663 -0.2076  0.3582
    1W        W65334   1.596   8.645   8.341  0.2118  0.0215 -0.0132
    1W        W65335  15.909  15.306   9.278  0.0510 -0.1066 -0.1001
    1W        W65336  13.886   0.716   2.951  0.0508  0.3072 -0.0414
    1W        W65337  25.058  22.160   0.269 -0.1471  0.0658  0.2457
    1W        W65338   3.171  17.700   0.630 -0.1807 -0.2161  0.1463
    1W        W65339  25.906  15.060   0.721  0.1492  0.4047 -0.0298
    1W        W65340  21.926  17.263   7.373 -0.0153  0.0595  0.2541
    1W        W65341  16.463  25.031   2.427  0.0728  0.1728  0.2513
    1W        W65342  27.250   0.342   2.338  0.0288  0.0511 -0.0070
    1W        W65343  15.741   2.359   0.965 -0.4768 -0.2462 -0.0274
    1W        W65344  21.220  13.534   9.401  0.0250  0.1015  0.1124
    1W        W65345  18.984  13.104   6.358  0.2182  0.3475 -0.2054
    1W        W65346  24.656   4.041   3.252 -0.3147 -0.0941  0.0447
    1W        W65347  16.860  19.030   7.822  0.2236 -0.0080  0.0535
    1W        W65348   8.574  24.618   0.906 -0.6429  0.0701 -0.0254
    1W        W65349  22.195  28.293   7.191 -0.0178 -0.0075  0.2030
    1W        W65350  22.831   9.554   2.204 -0.0854 -0.1310 -0.4395
    1W        W65351  24.789  29.207   9.445  0.2299  0.0267 -0.0019
    1W        W65352  25.556   8.897   8.895  0.4034 -0.0783  0.1867
    1W        W65353  10.963   2.785   8.141 -0.0489  0.0525 -0.1145
    1W        W65354  27.595   3.641   7.255  0.0974 -0.2273  0.2944
    1W        W65355   7.486  22.217   6.145  0.2315 -0.0806 -0.4286
    1W        W65356  23.561   4.504   1.542  0.3361 -0.0211 -0.0985
    1W        W65357  14.810   6.172   2.312 -0.0450  0.3652  0.0821
    1W        W65358   4.827  29.622   1.985  0.0015  0.2298 -0.1855
    1W        W65359  22.698   5.828   5.777  0.1037 -0.0772 -0.2262
    1W        W65360  25.446  18.024   1.253 -0.1012  0.0703  0.2431
    1W        W65361   5.365  13.716   1.924  0.0756  0.0821  0.1031
    1W        W65362   2.984   6.458   0.050  0.3941 -0.3140  0.1289
    1W        W65363   1.515  17.728   6.869  0.0545  0.0761 -0.2495
    1W        W65364  28.199  22.291   0.525 -0.0094 -0.0378 -0.1807
    1W        W65365   3.361   3.140   9.058  0.0036  0.0676 -0.1288
    1W        W65366   5.213  13.787   1.112  0.0028  0.0741 -0.0319
    1W        W65367  10.795  17.575   1.722 -0.0133  0.0728  0.1379
    1W        W65368  28.646  18.138   3.033  0.0953  0.1911 -0.0659
    1W        W65369  27.544   2.274   6.432  0.1120 -0.2055 -0.2076
    1W        W65370   3.968   8.012   1.455  0.2221 -0.1282 -0.0235
    1W        W65371  28.958  28.198   8.870  0.1790  0.1327  0.4268
    1W        W65372  22.424  20.102   2.759 -0.3882  0.0688  0.0884
    1W        W65373   9.710  17.665   0.414  0.2576  0.2581  0.1197
    1W        W65374  24.498   1.843   9.032 -0.5270  0.4999  0.1564
    1W        W65375  14.766  13.183   1.359  0.2041 -0.1620 -0.0913
    1W        W65376   0.962  28.300   2.313 -0.1118  0.1378 -0.0177
    1W        W65377  15.874   4.591   2.914 -0.1033 -0.1300 -0.0910
    1W        W65378  17.418   5.421   7.374 -0.1226  0.0379  0.4081
    1W        W65379   7.341   2.779   0.116 -0.0423 -0.0474 -0.3211
    1W        W65380  24.231  18.062   7.032 -0.0418 -0.2049  0.0083
    1W        W65381  21.953  21.349   0.331  0.3572  0.1688  0.0714
    1W        W65382   6.586   8.350   0.031 -0.0713 -0.4603 -0.0624
    1W        W65383   4.276   2.582   1.685  0.0224 -0.2052 -0.0361
    1W        W65384   3.518   6.712   2.393  0.2217  0.1342 -0.1046
    1W        W65385   0.025   2.494   1.861 -0.3754  0.2648 -0.0969
    1W        W65386  25.270  25.461   2.090  0.1399 -0.0776  0.2027
    1W        W65387  21.195  26.467   8.654  0.1875  0.2168  0.0757
    1W        W65388   0.543   8.900   9.450  0.2610 -0.2753 -0.0469
    1W        W65389  14.824  15.799   6.884 -0.0862  0.0581 -0.0573
    1W        W65390  10.220   3.191   8.776  0.0350 -0.2670  0.2734
    1W        W65391   9.529   0.482   8.297  0.0954  0.1085  0.3757
    1W        W65392  12.101  20.853   7.837  0.0453 -0.2242  0.1550
    1W        W65393  23.526  13.568   7.147 -0.2600 -0.5290  0.0509
    1W        W65394  17.596  23.357   0.193  0.2433  0.1135 -0.1391
    1W        W65395   6.110   5.988   7.996  0.1030  0.1525 -0.0490
    1W        W65396  23.545  18.637   7.559 -0.2665  0.2179  0.0746
    1W        W65397  15.958  23.816   8.130  0.1329  0.0167 -0.2603
    1W        W65398   5.914  16.322   7.392 -0.1275 -0.3791  0.0927
    1W        W65399   7.652   1.201   0.030 -0.1545  0.1312  0.0456
    1W        W65400  24.469   0.969   2.458  0.0353 -0.1671 -0.1178
    1W        W65401  20.566  17.184   8.032  0.0670  0.0302 -0.3310
    1W        W65402  18.368  13.806   7.889  0.3188  0.1977 -0.0354
    1W        W65403  19.606  21.256   2.589 -0.0467  0.0992  0.0626
    1W        W65404   7.932  18.646   8.398  0.0275  0.0999  0.0010
    1W        W65405  13.081  21.588   6.770 -0.1209  0.2871  0.0181
    1W        W65406  13.980   9.563   7.882  0.0655  0.0178  0.0980
    1W        W65407  19.439   1.778   0.425  0.0334 -0.0175 -0.0903
    1W        W65408   3.023   2.510   8.424 -0.2146 -0.3162  0.1777
    1W        W65409   2.118  20.447   5.578  0.2270 -0.0030  0.0582
    1W        W65410  24.394   7.411   0.287 -0.1298  0.1866  0.0808
    1W        W65411  25.619  13.596   9.307 -0.2568 -0.0087 -0.0551
    1W        W65412  14.347   4.719   0.632  0.1467 -0.0544 -0.1273
    1W        W65413   5.265  25.080   8.069 -0.1845 -0.0844 -0.1326
    1W        W65414  14.671  11.964   9.000 -0.0104 -0.0704 -0.1548
    1W        W65415  13.500  22.590   8.989  0.1453 -0.0589 -0.1609
    1W        W65416  17.525   1.807   6.335  0.0942 -0.1649 -0.2157
    1W        W65417  25.057  18.442   7.236 -0.0259 -0.0526  0.0217
    1W        W65418   1.460  22.170   6.133 -0.0419  0.0189  0.3889
    1W        W65419   0.404   1.934   9.043  0.1277 -0.2246  0.0081
    1W        W65420  19.696  11.805   8.459 -0.0296  0.0432  0.3244
    1W        W65421  22.467   0.996   1.413 -0.2655 -0.1737  0.0111
    1W        W65422   5.733   7.181   2.682  0.1986  0.0071  0.0849
    1W        W65423  12.363  20.506   8.088 -0.6123  0.0138  0.2724
    1W        W65424  12.149   0.732   1.167  0.1326 -0.0179 -0.0503
    1W        W65425   8.141  19.754   2.144  0.0694  0.3204  0.2236
    1W        W65426  24.305   4.252   8.512  0.5347 -0.0914 -0.1894
    1W        W65427  12.296  14.859   0.882  0.0682 -0.1475 -0.0579
    1W        W65428  22.801   4.716   8.334  0.2172 -0.1799  0.0550
    1W        W65429  16.590  21.391   8.665 -0.2622  0.0327 -0.0106
    1W        W65430  29.819   1.015   7.204  0.0371 -0.0333 -0.0758
    1W        W65431  24.185   4.660   1.297 -0.1001 -0.0823  0.0770
    1W        W65432   2.604  27.875   9.147 -0.0953 -0.1115 -0.1959
    1W        W65433  12.536  21.273   1.707  0.0333 -0.1602  0.1847
    1W        W65434   8.344  28.919   2.940 -0.2247  0.0053 -0.0835
    1W        W65435   3.561  12.048   1.824 -0.1222 -0.0464  0.0025
    1W        W65436  21.336  13.975   7.553 -0.0017  0.0445 -0.0784
    1W        W65437   4.692   4.588   9.250  0.0422  0.0829  0.0894
    1W        W65438   5.526   6.108   1.093 -0.1143 -0.0970 -0.0671
    1W        W65439  10.980   1.596   2.492  0.0392 -0.1851  0.0083
    1W        W65440  26.998  29.748   1.017 -0.0825 -0.0649 -0.0990
    1W        W65441  29.695   1.404   1.163  0.1533  0.3375  0.0166
    1W        W65442   4.179   8.776   1.813 -0.2171 -0.0660  0.3461
    1W        W65443   6.905   9.654   2.021  0.1409  0.1080 -0.0606
    1W        W65444   0.932  12.494   2.043  0.0648 -0.4011 -0.1009
    1W        W65445   3.019   6.385   1.510 -0.1872  0.0323  0.0653
    1W        W65446  29.406  24.115   5.811 -0.1324  0.0553  0.0862
    1W        W65447   5.633  11.591   6.953 -0.1539  0.2085 -0.1563
    1W        W65448  18.431  15.536   2.014  0.3451  0.1849 -0.2662
    1W        W65449  22.344   3.741   6.662  0.2107  0.3035  0.2213
    1W        W65450  21.164   5.893   6.964  0.1470 -0.1608 -0.1605
    1W        W65451   6.911  10.382   8.887 -0.0177  0.0123  0.1652
    1W        W65452  12.128  20.125   7.027  0.0995  0.1655 -0.0736
    1W        W65453  19.046  24.344   7.250 -0.0568 -0.2747 -0.1673
    1W        W65454   3.322   5.909   3.156 -0.2159  0.1204  0.2121
    1W        W65455   0.254  15.873   6.610  0.0207  0.0519 -0.0260
    1W        W65456  16.869   4.280   0.278  0.0157 -0.1754  0.0047
    1W        W65457  13.291  10.149   2.689 -0.1766  0.0988 -0.1715
    1W        W65458  18.021   1.234   2.344  0.0859  0.0592  0.1532
    1W        W65459  24.964  17.112   5.982 -0.2212  0.1241 -0.0017
    1W        W65460  13.275  10.199   0.073  0.0409  0.2404 -0.1169
    1W        W65461   3.426   0.287   0.175  0.0959 -0.0368  0.1365
    1W        W65462  11.794   6.048   7.487 -0.3084  0.0510 -0.3659
    1W        W65463  19.226  25.149   7.688 -0.0205 -0.1216 -0.2340
    1W        W65464  17.789  22.835   7.684 -0.1107 -0.0102  0.0449
    1W        W65465  22.329  21.009   0.296  0.1007 -0.0062  0.2147
    1W        W65466   1.431   2.084   7.676  0.0190 -0.0318  0.1879
    1W        W65467  14.109   2.912   2.498  0.0472  0.2677 -0.0566
    1W        W65468   1.650  12.759   1.840 -0.1225 -0.0968  0.1367
    1W        W65469   3.520  23.730   1.626  0.0676 -0.3742 -0.0390
    1W        W65470  19.131  12.842   1.257  0.1360  0.0719 -0.1551
    1W        W65471   6.130   2.251   1.416  0.0010  0.1276  0.1956
    1W        W65472  26.721  26.546   0.829 -0.2445  0.2214  0.0225
    1W        W65473   4.251  25.838   8.210  0.0776 -0.0494  0.1404
    1W        W65474  28.747   8.681   0.077 -0.0455 -0.2122 -0.5414
    1W        W65475  22.203   7.873   6.789 -0.1375  0.1202  0.0672
    1W        W65476  19.654  11.936   7.982  0.1563  0.3027 -0.0168
    1W        W65477  16.911  27.463   1.207  0.0301  0.3721 -0.1459
    1W        W65478  22.675  12.479   8.370  0.2881  0.0162 -0.0532
    1W        W65479   8.431  26.841   7.017 -0.0383  0.1345 -0.1468
    1W        W65480   2.609  18.100   0.260 -0.6318  0.3101 -0.0890
    1W        W65481  10.048   0.950   8.680 -0.1062 -0.0984 -0.1054
    1W        W65482  20.858   8.424   8.402  0.0956  0.2658  0.1338
    1W        W65483  15.838  24.478   0.061  0.1332 -0.1019 -0.0599
    1W        W65484  22.856  26.922   7.966  0.0825  0.0865  0.4359
    1W        W65485  17.604  26.892   8.194  0.0858 -0.0191 -0.1213
    1W        W65486  12.392  13.473   0.454  0.0683  0.2095  0.0548
    1W        W65487  27.084   2.496   7.870  0.2655 -0.1291 -0.0553
    1W        W65488   0.352  23.627   6.986  0.3004  0.0216 -0.0932
    1W        W65489  21.952   9.760   1.462 -0.3998  0.1410  0.1320
    1W        W65490  20.009  26.667   1.050 -0.0873 -0.1943  0.2240
    1W        W65491   1.298   8.183   9.417 -0.0042 -0.1258  0.3401
    1W        W65492  26.461  15.653   9.048 -0.0568 -0.0633 -0.2424
    1W        W65493  21.387  17.942   7.243  0.1159  0.1932  0.1994
    1W        W65494   3.611  11.629   6.207 -0.0081  0.1352 -0.2865
    1W        W65495  14.549   4.872   2.477 -0.1137  0.3127 -0.1356
    1W        W65496  22.293   0.891   0.885 -0.0536 -0.0104  0.1619
    1W        W65497  15.872  12.748   1.781 -0.1129 -0.0371 -0.0053
    1W        W65498   7.221  28.376   7.173 -0.0034  0.0707  0.0176
    1W        W65499  20.873  29.031   0.510 -0.0709 -0.2825 -0.1287
    1W        W65500  21.489   2.543   8.986 -0.2209  0.0930 -0.0304
    1W        W65501  14.170  18.173   7.249  0.0592 -0.0618  0.0668
    1W        W65502   0.861  23.004   8.117  0.2617  0.2399  0.0851
    1W        W65503  21.321   1.188   8.948 -0.0551 -0.2227 -0.2110
    1W        W65504   2.491  12.388   7.420 -0.2011  0.0198 -0.2630
    1W        W65505   0.854  15.552   5.369 -0.0017  0.1845 -0.1629
    1W        W65506   2.419  10.989   0.904  0.1141 -0.1452  0.4522
    1W        W65507  11.673  18.824   1.449 -0.0328 -0.1873  0.1318
    1W        W65508   1.148  18.248   8.533 -0.3436  0.2541  0.0001
    1W        W65509   5.080   3.106   7.453 -0.3308 -0.0601  0.0751
    1W        W65510  21.195  24.462   0.435 -0.2424  0.0574 -0.1324
    1W        W65511   2.795   7.363   1.253 -0.2385 -0.0643 -0.2946
    1W        W65512   2.392   2.624   7.309 -0.2060 -0.3964 -0.1121
    1W        W65513  15.405   1.416   2.863  0.0030  0.0740 -0.0826
    1W        W65514   6.624   6.714   3.347  0.2128  0.1527  0.1321
    1W        W65515  17.845  19.391   9.419  0.2731 -0.2713 -0.1168
    1W        W65516  17.492  24.485   1.548 -0.0018 -0.1433  0.0974
    1W        W65517  10.587  22.197   7.845  0.0242  0.1259 -0.2966
    1W        W65518  28.223   2.457   8.646 -0.1046 -0.0692 -0.2375
    1W        W65519  27.982  14.304   8.601 -0.1907 -0.1024 -0.0421
    1W        W65520   3.361  14.873   0.173 -0.0093 -0.0116 -0.0769
    1W        W65521  21.332  13.338   6.923 -0.0389 -0.5115 -0.0960
    1W        W65522  26.441  28.947   2.362  0.3215 -0.2037 -0.2673
    1W        W65523  25.748   7.435   7.824 -0.1011 -0.1372 -0.2377
    1W        W65524   8.865  16.418   8.145 -0.0940  0.0212  0.2965
    1W        W65525  22.965  29.765   8.922 -0.0274 -0.0209  0.0977
    1W        W65526  10.613   3.510   1.524  0.1447  0.1035 -0.1610
    1WF      WF65527  13.320  19.410   8.003  0.2638 -0.0725  0.0631
    1WF      WF65528   0.857   7.478   8.098  0.2173 -0.1374  0.1032
    1WF      WF65529   3.757  21.518   0.863 -0.1623  0.1228  0.3551
    1WF      WF65530   9.803  11.735   9.061 -0.0044  0.0815 -0.1150
    1WF      WF65531   7.173   4.959   9.402  0.2017  0.0660  0.1608
    1WF      WF65532  17.246   6.300   7.713  0.0764  0.3734  0.5234
    1WF      WF65533  12.030   4.587   1.269  0.1740 -0.3845  0.1880
    1WF      WF65534  20.546  26.636   0.551  0.1729  0.2424 -0.1143
    1WF      WF65535  28.246  17.458   2.466  0.2698 -0.2350 -0.3805
    1WF      WF65536  26.785  16.194   8.359  0.1496  0.0545  0.4853
    1WF      WF65537  27.697   9.379   1.407  0.2289 -0.1287 -0.0022
    1WF      WF65538  22.659   7.464   1.362  0.0177 -0.0557 -0.0620
    1WF      WF65539  12.148  13.494   9.021 -0.1628 -0.2409 -0.3294
    1WF      WF65540   2.165  14.164   7.544 -0.1835  0.0921 -0.0589
    1WF      WF65541  25.238  19.454   8.372  0.1604  0.0953 -0.0791
    1WF      WF65542  22.049  29.387   2.368 -0.0857  0.1123  0.2515
    1WF      WF65543  14.527  18.844   0.670 -0.1573  0.1142 -0.1527
    1WF      WF65544  28.642   6.579   0.796 -0.0997 -0.0463 -0.0825
    1WF      WF65545   1.593  15.979   8.387  0.0778  0.2152 -0.3483
    1WF      WF65546   5.134   9.677   1.690 -0.2137  0.1414 -0.1955
    1WF      WF65547   4.879  25.555   8.920  0.3951 -0.1756  0.0857
    1WF      WF65548  26.450   0.685   0.019  0.1868 -0.1884  0.1430
    1WF      WF65549  29.139   3.907   0.504 -0.1908  0.1386  0.3117
    1WF      WF65550   2.789   7.723   8.138 -0.1531 -0.1596  0.1587
    1WF      WF65551  24.136   4.602   7.023  0.0133 -0.0062  0.1914
    1WF      WF65552   8.745   0.708   0.065 -0.3449 -0.1999 -0.0549
    1WF      WF65553   2.404  25.290   0.249  0.0667 -0.2214 -0.0250
    1WF      WF65554   4.728  18.652   1.025 -0.2600 -0.0438  0.0379
    1WF      WF65555  25.880  22.766   0.944 -0.0720  0.1535  0.0337
    1WF      WF65556  28.905  16.334   8.076 -0.0351  0.1060 -0.1418
    1WF      WF65557  13.382   8.693   0.015  0.1218 -0.3768 -0.0328
    1WF      WF65558   1.336   4.056   9.039 -0.2563 -0.3502 -0.0095
    1WF      WF65559  19.905  15.687   9.458 -0.0725 -0.4206  0.2524
    1WF      WF65560  17.316   2.246   9.411  0.3749 -0.1854 -0.0030
    1WF      WF65561  18.310   0.013   8.460 -0.0669  0.2010  0.0362
    1WF      WF65562   9.069  26.370   1.476  0.1280 -0.2984 -0.1193
    1WF      WF65563  25.288  29.062   8.623  0.2080  0.0537 -0.0870
    1WF      WF65564   8.064  24.355   0.883  0.2610  0.3125 -0.0080
    1WF      WF65565  13.218   3.939   1.426 -0.0390  0.4151 -0.0540
    1WF      WF65566   0.155   0.297   0.541 -0.0789 -0.0262 -0.1806
    1WF      WF65567  26.988   8.252   8.727 -0.1555  0.2548 -0.0534
    1WF      WF65568  22.003  29.446   9.400 -0.0688 -0.1346 -0.1138
    1WF      WF65569  16.417   1.826   8.781  0.3084  0.1775 -0.0626
    1WF      WF65570   8.818  21.913   7.085  0.1469  0.1271  0.2980
    1WF      WF65571   7.550   8.875   3.853  0.0906  0.2199 -0.2317
    1WF      WF65572  19.600  16.429   7.788  0.2374 -0.2064 -0.1790
    1WF      WF65573   2.217  16.078   7.088 -0.1365  0.1438  0.0705
    1WF      WF65574  24.879   6.267   0.132 -0.1618 -0.4035 -0.2057
    1WF      WF65575  21.066  12.481   6.874  0.4752  0.1396  0.2235
    1WF      WF65576  19.806  28.138   1.504 -0.2188  0.0516 -0.3199
    1WF      WF65577   3.000  27.916   8.653 -0.1064  0.0165 -0.1056
    1WF      WF65578  24.046  21.406   1.129  0.1474 -0.1075  0.1678
    1WF      WF65579  21.258  11.639   6.141  0.1359 -0.0040 -0.1530
    1WF      WF65580  10.433   3.796   8.711  0.3252 -0.0355 -0.2275
    1WF      WF65581   8.919  14.774   8.518  0.0096  0.2788 -0.1414
    1WF      WF65582   2.277   1.727   1.261  0.0343 -0.2357  0.0221
    1WF      WF65583  29.721  26.417   2.591 -0.3972  0.0146 -0.0785
    1WF      WF65584  23.129  27.117   8.470 -0.1151  0.1394  0.0224
    1WF      WF65585  15.949   1.587   8.770  0.0923  0.1568  0.0669
    1WF      WF65586  10.390   4.741   1.945  0.1077 -0.0288 -0.2396
    1WF      WF65587  22.517  17.295   7.636 -0.1442 -0.5173 -0.0223
    1WF      WF65588  11.024  13.810   1.463  0.0812 -0.2227 -0.0268
    1WF      WF65589  19.942  19.815   0.765  0.4003 -0.2827  0.2637
    1WF      WF65590  17.573  19.224   1.003 -0.2281 -0.2904  0.0220
    1WF      WF65591   0.369  28.282   7.843  0.0956  0.0901  0.0667
    1WF      WF65592   8.302  22.316   0.232 -0.2664  0.1320  0.0120
    1WF      WF65593   2.658  16.338   2.232  0.0494  0.0133  0.0127
    1WF      WF65594  15.908  16.406   0.997  0.1743 -0.1676 -0.0399
    1WF      WF65595   0.254  12.983   9.230 -0.0454  0.0272 -0.3020
    1WF      WF65596  20.421   0.687   9.084 -0.1064 -0.1544  0.1320
    1WF      WF65597  28.368  28.101   2.507 -0.1967  0.3102 -0.2844
    1WF      WF65598  11.265   7.625   9.432  0.0615  0.0346  0.0172
    1WF      WF65599   1.223   7.858   1.207 -0.3637  0.1395  0.3438
    1WF      WF65600   4.996  22.032   9.451 -0.1324 -0.2375 -0.0464
    1WF      WF65601   5.297  13.054   7.454 -0.3028 -0.2796 -0.0585
    1WF      WF65602  23.332  14.778   8.682 -0.0708  0.0591 -0.1258
    1WF      WF65603  11.826  27.339   1.288  0.1123 -0.1086  0.0716
    1WF      WF65604  27.597  17.731   8.996  0.1640  0.1274 -0.2970
    1WF      WF65605   8.855  29.768   0.121 -0.0975  0.4675 -0.1773
    1WF      WF65606   8.167   2.540   3.217 -0.2598 -0.1565  0.0209
    1WF      WF65607  23.338   2.535   8.767 -0.2099  0.1656 -0.2176
    1WF      WF65608  24.035  17.509   8.021 -0.2061  0.0701  0.1805
    1WF      WF65609   4.251  23.900   8.285 -0.1549 -0.0703 -0.4442
    1WF      WF65610   8.198  27.939   0.856 -0.1584 -0.0853 -0.1453
    1WF      WF65611  22.603  13.425   7.355  0.1066 -0.1882 -0.0321
    1WF      WF65612  12.789   4.590   8.431 -0.0095 -0.0252 -0.1589
    1WF      WF65613   0.532   6.158   0.663 -0.1853 -0.3236 -0.1398
    1WF      WF65614  13.220  26.443   8.669  0.3314  0.0362 -0.1794
    1WF      WF65615  26.392  20.268   5.673 -0.1791 -0.1479  0.4387
    1WF      WF65616  16.030  14.362   8.393  0.0714  0.1093 -0.1282
    1WF      WF65617  25.376   2.744   8.577 -0.1144 -0.0046  0.0573
    1WF      WF65618  27.091  17.961   1.671 -0.0029 -0.0269  0.0208
    1WF      WF65619   8.971   4.478   1.190 -0.2288  0.1272 -0.0551
    1WF      WF65620  11.118  24.861   2.554  0.0589 -0.2172  0.3323
    1WF      WF65621  13.603  18.879   1.209 -0.2874 -0.0647  0.0743
    1WF      WF65622  24.614   1.112   6.758 -0.1074 -0.0899  0.1111
    1WF      WF65623   7.454  15.783   0.663 -0.1114  0.0642 -0.0912
    1WF      WF65624  25.305   8.296   7.027  0.0818 -0.0260 -0.2319
    1WF      WF65625  15.784  13.216   9.002  0.1033 -0.0929 -0.0476
    1WF      WF65626  19.907  22.964   8.282  0.1250  0.1746  0.1682
    1WF      WF65627   2.063  16.729   0.641 -0.0520 -0.0050 -0.0772
    1WF      WF65628  28.924  26.817   7.715 -0.0999  0.3221  0.3415
    1WF      WF65629  16.468  22.089   9.396 -0.2013  0.0370  0.4081
    1WF      WF65630   0.643  22.250   8.799  0.2475 -0.2705 -0.2392
    1WF      WF65631  28.368  12.160   7.556  0.0592  0.0406 -0.0288
    1WF      WF65632  22.045   0.507   1.354  0.1590  0.0072  0.0884
    1WF      WF65633  23.286   2.008   0.395 -0.0300 -0.3331 -0.0677
    1WF      WF65634  24.854  18.588   0.559  0.0081  0.3009  0.0304
    1WF      WF65635   6.136  20.465   0.586  0.1992 -0.1448  0.1602
    1WF      WF65636   2.256  19.590   0.310 -0.2593  0.0248  0.0505
    1WF      WF65637  13.724  26.303   7.673  0.2205 -0.1049 -0.3163
    1WF      WF65638   4.454  26.941   7.536  0.0021  0.1722  0.3407
    1WF      WF65639  29.236  16.867   9.173  0.2103  0.1159 -0.2294
    1WF      WF65640   7.044   6.385   0.240 -0.0672  0.0190 -0.1922
    1WF      WF65641  26.173  13.783   9.037  0.2351  0.0797  0.1669
    1WF      WF65642  14.278   8.032   6.562  0.0038  0.1525  0.3377
    1WF      WF65643   6.508  22.072   8.780  0.0735 -0.0495 -0.0830
    1WF      WF65644   8.086   5.870   3.481  0.0006  0.1145 -0.2732
    1WF      WF65645  24.396   4.748   0.326 -0.3521 -0.2156  0.0804
    1WF      WF65646  29.119   2.521   8.983 -0.0400  0.2670  0.0226
    1WF      WF65647  14.157  20.923   7.679 -0.1610 -0.1440  0.2307
    1WF      WF65648  24.964   4.689   0.258 -0.0551 -0.0562 -0.2681
    1WF      WF65649  14.558   1.684   8.081  0.0521  0.1496 -0.2128
    1WF      WF65650  19.160  20.196   1.035  0.2117  0.0303  0.0403
    1WF      WF65651   5.216  29.658   0.833 -0.0374  0.0679 -0.1011
    1WF      WF65652  21.542   6.519   7.913  0.1186 -0.1094 -0.2910
    1WF      WF65653  26.993  22.124   7.749  0.1000 -0.0792 -0.0412
    1WF      WF65654  17.616  27.852   8.112 -0.5639 -0.1853  0.0275
    1WF      WF65655  28.838   5.995   8.076  0.1118  0.0464  0.2138
    1WF      WF65656   9.507  22.668   8.097 -0.2566 -0.3899 -0.0144
    1WF      WF65657  16.580   6.473   1.461  0.0223 -0.1935 -0.4267
    1WF      WF65658  13.803  20.659   8.096  0.1098 -0.1463 -0.1021
    1WF      WF65659  10.711  25.837   1.782  0.3287  0.0727  0.0563
    1WF      WF65660  26.283   0.770   8.325  0.0205 -0.0060 -0.2715
    1WF      WF65661   5.116  19.008   8.006  0.0003  0.2410  0.0337
    1WF      WF65662  15.990   1.639   8.168 -0.1500 -0.3104 -0.4260
    1WF      WF65663  18.931   1.241   8.503  0.1996  0.0324 -0.1827
    1WF      WF65664   9.357  11.977   8.306  0.2709 -0.1918 -0.1898
    1WF      WF65665   1.951  10.542   0.999  0.0103 -0.0449 -0.0813
    1WF      WF65666   1.677  22.830   1.842  0.2494  0.0899  0.2016
    1WF      WF65667   5.452  10.677   0.175  0.2786  0.1645  0.0606
    1WF      WF65668  17.760  23.780   0.924  0.2633 -0.2201 -0.2373
    1WF      WF65669   4.738   8.204   0.158 -0.0297 -0.1315  0.1629
    1WF      WF65670   7.036  16.621   8.156  0.1822 -0.1545  0.1002
    1WF      WF65671  27.007  16.567   9.006  0.1936 -0.3974  0.0488
    1WF      WF65672  27.948  18.011   6.423  0.0888  0.0800  0.2977
    1WF      WF65673  20.859  19.387   9.116  0.0206 -0.0421 -0.1283
    1WF      WF65674  14.283   9.009   7.923  0.2410  0.0387  0.1386
    1WF      WF65675  20.650   7.439   8.777 -0.0348  0.3316  0.3268
    1WF      WF65676  14.922   5.137   0.428  0.3853 -0.2271  0.4129
    1WF      WF65677  22.013   2.206   1.509  0.2544  0.1850  0.0044
    1WF      WF65678  29.410  14.167   0.553 -0.0314  0.1022 -0.1701
    1WF      WF65679  16.288  24.762   7.297  0.1437 -0.2819 -0.0694
    1WF      WF65680  18.036  10.165   8.587 -0.0714  0.1010  0.2373
    1WF      WF65681  23.165  18.786   8.595 -0.1174  0.0846  0.0250
    1WF      WF65682  26.012  28.528   1.337  0.0884 -0.2818 -0.0465
    1WF      WF65683  27.629  21.712   1.381 -0.0491  0.3314 -0.1983
    1WF      WF65684   5.695  27.371   0.688  0.1013 -0.0187  0.4323
    1WF      WF65685  26.697  12.550   1.114  0.3485  0.0746 -0.1240
    1WF      WF65686  28.305  18.475   8.026  0.1037  0.3671 -0.1010
    1WF      WF65687  24.392   0.021   0.178  0.6526 -0.0190 -0.1243
    1WF      WF65688   8.919  10.435   2.014 -0.2332  0.1966  0.0486
    1WF      WF65689  26.877   7.245   9.181  0.3354  0.0951  0.2341
    1WF      WF65690  12.839   7.498   3.484 -0.4169  0.3793 -0.1128
    1WF      WF65691   3.756  12.156   8.487  0.3091  0.1346 -0.0407
    1WF      WF65692   1.065  26.888   9.021  0.1746 -0.0340  0.3941
    1WF      WF65693   9.516  28.361   7.668 -0.0420  0.0727  0.0527
    1WF      WF65694   5.463  27.976   8.219  0.1126 -0.3373 -0.4016
    1WF      WF65695  22.217  10.777   5.961 -0.0948  0.2033 -0.0633
    1WF      WF65696  11.618  24.301   7.936  0.0347 -0.1208 -0.1746
    1WF      WF65697   5.765   4.721   1.585 -0.1053 -0.2569 -0.2752
    1WF      WF65698  22.834  10.040   7.717 -0.4604 -0.0637 -0.2978
    1WF      WF65699   4.892  27.495   0.015  0.1498  0.0354  0.1434
    1WF      WF65700  16.069  24.963   1.044  0.1294 -0.1181 -0.0971
    1WF      WF65701  14.456  11.242   1.053  0.2877  0.1078  0.1813
    1WF      WF65702   4.244   0.962   8.823  0.0896  0.0346 -0.2999
    1WF      WF65703  13.161  26.185   6.227 -0.2644  0.1727 -0.3287
    1WF      WF65704  24.754   4.751   3.221 -0.0650 -0.1766 -0.1949
    1WF      WF65705  14.663  12.724   8.025 -0.2596 -0.3419 -0.0441
    1WF      WF65706   8.916   1.856   6.942 -0.0149  0.1875 -0.1091
    1WF      WF65707   0.731   6.931   8.090 -0.0750  0.0805  0.1475
    1WF      WF65708  21.177   8.307   8.954  0.1651 -0.3930  0.0953
    1WF      WF65709  26.180  24.582   1.275 -0.1018  0.1315  0.1395
    1WF      WF65710  22.042  23.225   8.847 -0.1206 -0.2697  0.1600
    1WF      WF65711   0.397  29.788   0.199  0.1097  0.2476 -0.0021
    1WF      WF65712  28.238   9.562   7.479  0.1776 -0.0328 -0.0481
    1WF      WF65713   5.763  13.736   3.046  0.1021 -0.0757 -0.0589
    1WF      WF65714  23.689  10.760   8.842 -0.0773  0.2427  0.2546
    1WF      WF65715   8.996   7.843   0.664 -0.3006 -0.0339  0.1506
    1WF      WF65716   8.891  18.802   9.416  0.1520 -0.0078  0.2221
    1WF      WF65717  29.449   8.328   6.019 -0.0423 -0.1673 -0.1719
    1WF      WF65718  28.512  14.744   1.528  0.1544  0.0841 -0.1318
    1WF      WF65719   9.564  11.684   7.956  0.1916  0.0468 -0.1789
    1WF      WF65720   6.536  20.872   6.675 -0.2432  0.0451  0.0403
    1WF      WF65721   0.919   9.394   8.819 -0.1092  0.1554  0.3229
    1WF      WF65722   2.229  28.798   8.994  0.1302  0.0145  0.0573
    1WF      WF65723  20.148  18.613   6.649 -0.1989  0.0014 -0.1113
    1WF      WF65724  25.077  17.941   9.217 -0.0368  0.1360 -0.0240
    1WF      WF65725  20.199  24.804   2.021  0.0547 -0.1418 -0.1890
    1WF      WF65726  29.057  17.836   6.935 -0.1671 -0.2670 -0.0806
    1WF      WF65727   1.468  16.881   8.787 -0.0651  0.3098 -0.1878
    1WF      WF65728  10.755  13.385   8.528 -0.1191  0.2708 -0.0527
    1WF      WF65729  14.658  27.561   1.214  0.1892  0.1399  0.2814
    1WF      WF65730  12.610  24.908   8.152  0.4122  0.0112 -0.5000
    1WF      WF65731  27.309  10.997   6.121  0.0430  0.1609 -0.2788
    1WF      WF65732  20.375   2.091   0.189 -0.0651 -0.1752 -0.0607
    1WF      WF65733   5.990  14.655   6.693  0.0439  0.2320  0.3360
    1WF      WF65734  24.803  19.536   1.683  0.1257 -0.2041 -0.3831
    1WF      WF65735   3.027  29.371   1.820 -0.1272  0.0178  0.0845
    1WF      WF65736  21.275  19.014   9.334 -0.0139 -0.1279  0.2114
    1WF      WF65737  19.711  21.852   1.767 -0.2438 -0.0061  0.0347
    1WF      WF65738   9.933  17.916   9.372  0.1844  0.1135 -0.0329
    1WF      WF65739  28.053  27.824   6.470  0.2117  0.1449  0.0226
    1WF      WF65740  29.729  23.941   1.351  0.1914  0.0939 -0.1710
    1WF      WF65741   9.454  10.014   1.217 -0.1267  0.0728  0.2267
    1WF      WF65742  25.228   1.499   1.279 -0.0162  0.3075  0.0679
    1WF      WF65743   4.401   0.672   2.858  0.1368 -0.1573 -0.0704
    1WF      WF65744   6.997   1.515   2.007 -0.2315  0.0627  0.0213
    1WF      WF65745   9.626  11.812   7.073 -0.1100 -0.1711 -0.0928
    1WF      WF65746   4.290  20.998   1.110 -0.1248  0.2775  0.3487
    1WF      WF65747   3.746  24.115   8.221  0.1683  0.0952 -0.0754
    1WF      WF65748  23.210  25.734   0.706  0.0392 -0.1200 -0.2937
    1WF      WF65749  12.588  26.929   8.141  0.2488 -0.1908 -0.2600
    1WF      WF65750  14.344   1.640   8.512 -0.1184  0.0797  0.1175
    1WF      WF65751  11.784  28.816   2.389 -0.1089  0.0118  0.0134
    1WF      WF65752  22.536  27.627   2.251  0.0764  0.2035 -0.1041
    1WF      WF65753   3.064  14.638   8.013  0.2032 -0.0340  0.2743
    1WF      WF65754   9.599   1.756   2.596  0.3074  0.0139 -0.2079
    1WF      WF65755   1.011  18.164   1.380  0.1846  0.2980 -0.0099
    1WF      WF65756  28.177   5.627   9.090 -0.0231  0.1867 -0.0335
    1WF      WF65757  26.287  27.359   1.101  0.0730 -0.2197 -0.2752
    1WF      WF65758  12.211  26.844   8.483  0.2304 -0.1885 -0.5306
    1WF      WF65759   7.725   5.940   7.803  0.1865 -0.0580 -0.4386
    1WF      WF65760  10.592  17.533   0.986 -0.2219  0.0080 -0.0054
    1WF      WF65761  26.698  12.676   8.301 -0.1459 -0.3092  0.0099
    1WF      WF65762  10.942   5.572   9.374  0.0203  0.1291 -0.2896
    1WF      WF65763  15.265  16.501   0.795  0.1175 -0.0522  0.0744
    1WF      WF65764  22.411   0.450   6.786  0.0597  0.0456 -0.0103
    1WF      WF65765  24.944   4.063   0.096 -0.1488 -0.0370  0.1832
    1WF      WF65766  13.366   8.232   0.507  0.1627 -0.3089  0.0040
    1WF      WF65767  17.620  27.464   8.587  0.3321 -0.1691  0.2719
    1WF      WF65768   1.257   5.234   6.568  0.1756  0.0510  0.0211
    1WF      WF65769  22.193  11.683   0.457 -0.0825 -0.0454  0.3429
    1WF      WF65770  17.448  25.791   2.977  0.3114 -0.0912  0.1080
    1WF      WF65771  27.780  29.042   0.204  0.1171  0.0545  0.2254
    1WF      WF65772   1.132  22.637   8.762 -0.1153  0.1284  0.0683
    1WF      WF65773   8.708  13.993   1.259 -0.1029  0.0710 -0.0275
    1WF      WF65774  26.725  22.278   1.140 -0.0984 -0.0752 -0.2464
    1WF      WF65775  19.583   4.307   1.453 -0.0698 -0.1746  0.0028
    1WF      WF65776   7.290  15.938   2.093 -0.0858 -0.1971  0.1680
    1WF      WF65777  20.507  11.737   7.889  0.1503 -0.4408 -0.3358
    1WF      WF65778   6.056   7.814   8.231  0.0181  0.3782 -0.2472
    1WF      WF65779  27.748   6.619   7.837  0.0321  0.0727  0.1576
    1WF      WF65780   0.050  24.644   7.567 -0.0689 -0.0106 -0.4332
    1WF      WF65781  18.207  19.975   0.781  0.1587 -0.0390 -0.3653
    1WF      WF65782   6.906  22.359   8.810  0.3766 -0.1940 -0.2953
    1WF      WF65783  14.209  16.173   0.991 -0.0420 -0.0693 -0.0151
    1WF      WF65784   7.337  25.178   8.821  0.2816 -0.0858 -0.2700
    1WF      WF65785  24.385  28.722   9.291 -0.2555 -0.0655 -0.2585
    1WF      WF65786   9.027   6.999   2.016  0.2111 -0.2487  0.0352
    1WF      WF65787   7.753  29.085   1.962  0.0231 -0.2107  0.1867
    1WF      WF65788   6.253  21.049   6.272  0.0795 -0.3051 -0.1093
    1WF      WF65789   9.184  13.410   2.350 -0.1390 -0.0256  0.0443
    1WF      WF65790   1.353  22.691   8.320  0.3449  0.1348  0.1011
    1WF      WF65791  16.243  21.773   9.011 -0.1589 -0.0064 -0.0257
    1WF      WF65792   1.597  23.064   7.273  0.0979  0.1415 -0.1559
    1WF      WF65793  17.380  21.028   0.487  0.3235 -0.0671 -0.2072
    1WF      WF65794  24.645   8.179   1.511  0.0118  0.0860 -0.0188
    1WF      WF65795   2.555  28.312   8.715 -0.1063  0.1245 -0.0894
    1WF      WF65796  26.037  18.184   0.538 -0.0768  0.1296  0.0713
    1WF      WF65797  28.266  10.984   0.474 -0.2263  0.1018  0.2954
    1WF      WF65798   7.837  23.903   0.885  0.2188 -0.1779 -0.2060
    1WF      WF65799  14.610   6.968   8.307  0.0797  0.1047 -0.1159
    1WF      WF65800  17.026  12.529   0.181 -0.0602  0.0953  0.1214
    1WF      WF65801   9.552  22.475   7.663 -0.0920 -0.0689 -0.1113
    1WF      WF65802  15.531  22.251   8.116  0.0561 -0.2353  0.1074
    1WF      WF65803  20.870  24.973   8.334 -0.0153 -0.0866 -0.0754
    1WF      WF65804   6.519  28.321   9.265 -0.1886  0.2897  0.1459
    1WF      WF65805   7.170  27.413   9.142  0.0928  0.1593 -0.1533
    1WF      WF65806  28.518   7.221   5.911  0.2073 -0.0154  0.0317
    1WF      WF65807  22.813   7.412   8.828 -0.1457 -0.1197 -0.0039
    1WF      WF65808  27.753  19.416   1.085  0.0476 -0.2772 -0.0519
    1WF      WF65809  25.803  27.114   0.035 -0.3102  0.0881  0.0030
    1WF      WF65810  29.471  17.537   6.946 -0.1382 -0.0949 -0.0656
    1WF      WF65811  12.444  28.791   9.191 -0.0984 -0.0362 -0.1800
    1WF      WF65812  28.450  22.534   8.183  0.0104  0.0872 -0.1909
    1WF      WF65813  11.753   6.327   0.204  0.2872  0.2155 -0.2939
    1WF      WF65814  25.873   9.645   0.195  0.2214  0.3405  0.5933
    1WF      WF65815  22.706  22.662   9.258  0.0545 -0.2739  0.1161
    1WF      WF65816   5.760  27.757   2.458  0.0400  0.1635  0.0328
    1WF      WF65817  17.243  14.871   1.050  0.1031 -0.2811 -0.1089
    1WF      WF65818  12.527  11.420   0.575 -0.0097  0.0140  0.1308
    1WF      WF65819   0.955   3.465   7.587 -0.0648 -0.0489  0.1264
    1WF      WF65820  14.250  29.131   2.485 -0.0819 -0.0520  0.0999
    1WF      WF65821   5.413  20.621   7.089  0.2253 -0.1514  0.1272
    1WF      WF65822  15.516   3.121   9.353  0.1244 -0.0795 -0.1668
    1WF      WF65823   0.395  10.677   0.615  0.0920  0.0030  0.2107
    1WF      WF65824  15.282   8.560   2.849  0.0319  0.1228  0.3598
    1WF      WF65825  13.212  13.760   0.714 -0.3746 -0.3845 -0.1424
    1WF      WF65826  10.030  12.718   8.377  0.0864 -0.1652 -0.1151
    1WF      WF65827  23.691   2.741   0.434  0.1594 -0.4644  0.1563
    1WF      WF65828  28.769  19.802   8.763  0.2025 -0.0660 -0.2289
    1WF      WF65829   0.171  27.786   0.471  0.1275  0.0088  0.0178
    1WF      WF65830  22.703   4.487   8.854  0.0668 -0.0936 -0.1795
    1WF      WF65831  21.258  28.872   1.223 -0.1549 -0.0416  0.0373
    1WF      WF65832  19.520   4.672   7.876 -0.0507  0.0686  0.0255
    1WF      WF65833   5.373   5.586   1.958 -0.1351  0.0410  0.0674
    1WF      WF65834  29.113   3.499   0.933 -0.1330  0.1925  0.1641
    1WF      WF65835   9.167  13.562   7.064 -0.0027  0.0355  0.0852
    1WF      WF65836   2.481   9.157   8.885  0.1179 -0.1358  0.1814
    1WF      WF65837  15.290  17.951   1.477  0.2241 -0.0374 -0.3022
    1WF      WF65838  28.990   5.448   3.263  0.3702  0.0894 -0.2662
    1WF      WF65839   7.499  17.291   8.979  0.0319  0.2074  0.1123
    1WF      WF65840  28.930  29.772   0.273 -0.0495  0.0115  0.2912
    1WF      WF65841  25.255  24.765   0.388  0.1230 -0.0925  0.2070
    1WF      WF65842  19.039  10.877   9.276  0.1654  0.2218  0.1887
    1WF      WF65843  27.381   7.578   7.779 -0.2944 -0.1005  0.0173
    1WF      WF65844   9.996   8.804   9.276  0.2174 -0.0207  0.2802
    1WF      WF65845   5.886  22.857   8.653 -0.0299 -0.4712 -0.3438
    1WF      WF65846  12.929  21.151   0.790  0.0512 -0.1017 -0.0137
    1WF      WF65847  17.870  25.892   1.369  0.1413  0.2212  0.0847
    1WF      WF65848  27.692  10.946   7.211 -0.0277 -0.2854  0.2928
    1WF      WF65849  10.856  26.533   0.064  0.2274  0.2113  0.3626
    1WF      WF65850  27.042   8.009   2.020 -0.1327 -0.0344  0.0251
    1WF      WF65851  23.530  19.043   8.311  0.2548  0.0882 -0.4041
    1WF      WF65852   0.489  23.427   8.747  0.2308 -0.1225  0.4104
    1WF      WF65853   2.023   2.297   0.302 -0.0476  0.1408  0.1211
    1WF      WF65854  11.156   0.433   0.899  0.2035 -0.1305 -0.2059
    1WF      WF65855  13.160  20.828   1.628  0.1576 -0.0925 -0.0837
    1WF      WF65856   5.699  17.021   0.998 -0.2156 -0.1911  0.2341
    1WF      WF65857   8.405  11.397   9.425  0.2401  0.0701  0.0381
    1WF      WF65858  12.842   2.319   2.397 -0.0400  0.0926  0.2282
    1WF      WF65859   7.797  11.515   1.009 -0.0233 -0.1803  0.1033
    1WF      WF65860  10.786   4.301   8.772  0.0420 -0.2222 -0.2038
    1WF      WF65861  13.917  16.583   9.213  0.0285 -0.0952  0.0447
    1WF      WF65862  14.641   1.249   8.291  0.0922  0.0617 -0.0205
    1WF      WF65863  25.465  19.648   7.682 -0.0145  0.0156 -0.1375
    1WF      WF65864  25.766   3.570   1.546  0.2826  0.0116 -0.0668
    1WF      WF65865   3.406   0.254   8.499 -0.2590  0.1023 -0.0451
    1WF      WF65866   7.403  10.198   3.467  0.0972 -0.0632  0.0910
    1WF      WF65867  16.456   4.546   8.371 -0.1498 -0.0271 -0.1618
    1WF      WF65868  27.729   6.980   1.391  0.1297  0.1798  0.3205
    1WF      WF65869  22.051  20.783   0.759  0.2090 -0.1766 -0.0921
    1WF      WF65870   9.411  13.021   0.909 -0.1367 -0.2001  0.0734
    1WF      WF65871   6.421  12.952   0.518  0.0514 -0.1700  0.1357
    1WF      WF65872  19.218  27.591   8.581  0.0537 -0.2569  0.2034
    1WF      WF65873  21.741  21.230   1.765  0.1848  0.0165 -0.0362
    1WF      WF65874  24.500  21.210   1.021  0.0334  0.1094  0.1662
    1WF      WF65875  12.331   9.725   9.236 -0.3114 -0.2433  0.0201
    1WF      WF65876  20.573   7.345   0.507  0.0363 -0.2584  0.2858
    1WF      WF65877   4.594   1.265   9.201 -0.1337  0.4436 -0.3854
    1WF      WF65878  18.686  22.828   8.860 -0.0501  0.1668  0.4444
    1WF      WF65879   5.896   6.901   0.317  0.2001 -0.2758  0.3911
    1WF      WF65880  26.574  22.248   8.041  0.3014 -0.1230  0.3058
    1WF      WF65881  27.111  15.268   1.488 -0.0855 -0.1747  0.1069
    1WF      WF65882  18.576  18.265   8.672 -0.1716  0.0806 -0.0448
    1WF      WF65883  25.938  26.796   7.150  0.1150  0.0466  0.4255
    1WF      WF65884   5.870   7.291   0.721  0.1074  0.2277 -0.1630
    1WF      WF65885  19.411   8.801   8.051 -0.0913 -0.0198  0.0467
    1WF      WF65886   3.522   5.480   1.722  0.0661  0.0886  0.0359
    1WF      WF65887  21.962  25.344   0.799  0.0828  0.0031  0.0874
    1WF      WF65888  28.562  27.911   7.852 -0.0210  0.2800 -0.1078
    1WF      WF65889   7.378  21.628   0.190  0.1972  0.1821  0.1787
    1WF      WF65890  18.669  17.398   1.157 -0.0554  0.1360  0.0705
    1WF      WF65891  11.964   0.545   9.025 -0.1674 -0.0671 -0.0009
    1WF      WF65892   9.199   3.345   2.321  0.2944  0.2110  0.0379
    1WF      WF65893  28.229   4.435   1.259  0.1172 -0.1049 -0.0596
    1WF      WF65894  20.009  10.552   0.575 -0.1673 -0.1410 -0.0755
    1WF      WF65895  22.780  24.954   8.028  0.1726 -0.0246 -0.1117
    1WF      WF65896  18.645   2.867   3.231 -0.0987  0.0413 -0.3429
    1WF      WF65897  28.038  19.704   9.344  0.1381 -0.3113  0.1979
    1WF      WF65898   3.739   6.086   1.638 -0.0337  0.1482 -0.0851
    1WF      WF65899   5.159   7.838   2.954  0.3313 -0.0744  0.1255
    1WF      WF65900  22.184  22.808   9.139  0.1060 -0.1679 -0.0938
    1WF      WF65901   1.167  27.792   7.990  0.2057  0.0602  0.2001
    1WF      WF65902  17.256  26.143   0.255  0.0827  0.1650  0.1735
    1WF      WF65903  14.207  29.434   8.830  0.0099 -0.0781  0.1543
    1WF      WF65904  24.021   1.975   0.873 -0.2024  0.1678  0.0716
    1WF      WF65905  24.420  13.821   1.670  0.1375 -0.1152  0.1595
    1WF      WF65906   3.644   7.112   3.426  0.3122  0.1767 -0.0017
    1WF      WF65907  23.892  12.481   0.408  0.1350 -0.0140  0.2828
    1WF      WF65908  28.993  19.627   8.354  0.0496  0.1352 -0.2344
    1WF      WF65909   4.300   7.156   1.628 -0.2371 -0.0454  0.0040
    1WF      WF65910  12.056  19.848   9.071 -0.2303  0.1170  0.1425
    1WF      WF65911   6.898   4.771   9.039  0.0492  0.0309 -0.3867
    1WF      WF65912  29.051   2.581   1.172 -0.2594  0.0609  0.2643
    1WF      WF65913  18.002   5.040   7.367 -0.1804  0.0390  0.1854
    1WF      WF65914  11.590   7.293   1.178  0.4493 -0.1471  0.1920
    1WF      WF65915  27.802  10.998   0.616  0.0025  0.1429  0.4242
    1WF      WF65916  11.528   0.648   1.141 -0.1144  0.3909  0.0849
    1WF      WF65917  11.328   1.432   1.831 -0.0803  0.1681 -0.1327
    1WF      WF65918  19.174  19.274   6.866  0.1511  0.1591  0.0791
    1WF      WF65919   5.884  25.911   7.820  0.3100  0.0126 -0.5399
    1WF      WF65920  26.124  19.131   1.104 -0.0826  0.0510 -0.1214
    1WF      WF65921  27.917  16.278   7.568  0.2690  0.1212 -0.0533
    1WF      WF65922  20.518   8.285   7.886  0.3783  0.1541  0.1594
    1WF      WF65923  19.997  26.603   0.468  0.0585 -0.1283  0.1083
    1WF      WF65924  14.326  13.140   8.249 -0.1736  0.1665  0.0383
    1WF      WF65925   9.362  14.588   8.339  0.2956 -0.0758  0.1251
    1WF      WF65926  26.788   0.908   9.230  0.1923  0.3615  0.0669
    1WF      WF65927  24.041  20.950   8.395  0.0623 -0.0807 -0.1592
    1WF      WF65928  22.061   2.848   9.014 -0.0348 -0.1027 -0.1407
    1WF      WF65929  20.788  22.082   8.193  0.0706  0.0099  0.0662
    1WF      WF65930  21.841  23.522   8.440  0.1666 -0.1399  0.1195
    1WF      WF65931  21.015  21.530   0.854  0.0311 -0.2701  0.2557
    1WF      WF65932   6.697  12.729   7.925 -0.2718 -0.1306  0.0112
    1WF      WF65933   9.354  11.739   7.491  0.0784  0.3158  0.1907
    1WF      WF65934  12.265  22.794   9.378  0.2571 -0.2091  0.0132
    1WF      WF65935  15.920   3.930   0.980 -0.0709 -0.1615  0.0207
    1WF      WF65936   5.121  15.768   1.799  0.1738  0.0565 -0.1509
    1WF      WF65937   0.878  28.591   0.405  0.0063 -0.1563 -0.3610
    1WF      WF65938   9.745  23.831   0.663  0.1349 -0.1034 -0.1120
    1WF      WF65939  24.606  24.297   1.634  0.1128 -0.1504 -0.1603
    1WF      WF65940  19.653   2.375   0.626 -0.0969 -0.1728  0.0040
    1WF      WF65941   9.680   3.137   9.068 -0.0378 -0.1458  0.2710
    1WF      WF65942   3.470  24.525   7.034  0.2376 -0.1787  0.0607
    1WF      WF65943   9.478  20.293   7.758 -0.0521 -0.2326 -0.2896
    1WF      WF65944   4.999  24.263   0.450  0.1369  0.1127  0.0413
    1WF      WF65945  22.929   9.558   7.697 -0.0460 -0.2306 -0.2877
    1WF      WF65946  21.998  20.157   8.968  0.1804  0.1975 -0.1652
    1WF      WF65947  20.353  12.163   7.697  0.2158 -0.0863 -0.1309
    1WF      WF65948  17.444   2.564   2.572  0.0007  0.1051  0.0706
    1WF      WF65949   6.145  17.116   0.764 -0.0181 -0.1633 -0.1621
    1WF      WF65950  13.874  27.994   8.598  0.0748 -0.0693 -0.0295
    1WF      WF65951  23.847  18.296   0.965 -0.1138 -0.1302  0.2137
    1WF      WF65952  13.240  17.598   6.648 -0.0356 -0.0424 -0.0740
    1WF      WF65953  11.936  23.802   0.434  0.0803  0.0671 -0.1266
    1WF      WF65954  29.386  26.955   6.134  0.4855  0.1291  0.0284
    1WF      WF65955   9.386   7.127   7.804 -0.0170  0.2020 -0.3181
    1WF      WF65956   6.704   8.708   0.501  0.0393  0.1717 -0.0174
    1WF      WF65957   3.277  25.679   9.185 -0.2374  0.0517  0.1120
    1WF      WF65958   7.284   7.943   6.814  0.0640  0.1046 -0.3314
    1WF      WF65959  22.606   2.115   7.942 -0.0579  0.1172 -0.1350
    1WF      WF65960  13.181  19.698   0.933 -0.1884  0.2169 -0.1693
    1WF      WF65961   1.935  16.493   8.220  0.2439 -0.0952 -0.1740
    1WF      WF65962  24.157  17.156   8.334 -0.3535 -0.2262  0.2300
    1WF      WF65963  27.256  16.076   8.164  0.3175 -0.1194 -0.2592
    1WF      WF65964  10.702   4.372   1.845  0.0207  0.1895  0.0022
    1WF      WF65965  27.501  24.788   7.779 -0.0234 -0.0799  0.0643
    1WF      WF65966  18.043   4.495   1.069  0.1488  0.0662  0.1990
    1WF      WF65967   2.089  20.986   1.271  0.2387 -0.0839  0.0610
    1WF      WF65968  11.535  20.864   8.723 -0.1246  0.0255 -0.3000
    1WF      WF65969  21.071   1.713   2.717  0.0068 -0.1131  0.0687
    1WF      WF65970  19.185   8.005   0.451 -0.0310 -0.1835 -0.0286
    1WF      WF65971  12.597  13.725   9.022 -0.3704 -0.4803  0.1048
    1WF      WF65972  27.621  15.888   7.816 -0.3612  0.1803  0.3435
    1WF      WF65973  13.435   8.976   7.405 -0.0238  0.1993  0.2052
    1WF      WF65974  15.533  29.203   1.412  0.0761 -0.0128 -0.0681
    1WF      WF65975   2.885   0.523   2.449 -0.2005  0.0987 -0.1373
    1WF      WF65976   7.039   3.307   9.312 -0.1886 -0.1611 -0.0255
    1WF      WF65977   6.342   8.636   2.323 -0.1049 -0.0897 -0.1539
    1WF      WF65978  10.023   4.703   2.313  0.0464 -0.3601 -0.0400
    1WF      WF65979   7.049   4.817   1.655 -0.0767  0.0557 -0.3463
    1WF      WF65980  21.857  27.399   0.554 -0.1226 -0.1206  0.0132
    1WF      WF65981  10.228  16.483   0.293  0.1081  0.1612 -0.0538
    1WF      WF65982   0.423   8.278   1.973 -0.0111  0.0623 -0.1647
    1WF      WF65983  28.820   0.466   0.095 -0.3089 -0.1517  0.0629
    1WF      WF65984   5.825  16.956   9.013 -0.1197  0.1909 -0.3391
    1WF      WF65985   3.322  14.162   1.533 -0.0076 -0.2329 -0.1934
    1WF      WF65986  19.343  10.357   1.041 -0.1395  0.2978  0.0609
    1WF      WF65987   4.034   3.959   7.986 -0.1228  0.2235 -0.1453
    1WF      WF65988   3.645  18.980   0.046  0.0438 -0.3423  0.0247
    1WF      WF65989   5.297  27.152   7.616  0.1146  0.1049 -0.6087
    1WF      WF65990   2.290  10.281   8.536 -0.1148 -0.0942 -0.0089
    1WF      WF65991  21.957  16.914   1.309  0.1712  0.0117  0.0616
    1WF      WF65992   3.950  29.321   6.933 -0.4315 -0.1146  0.0551
    1WF      WF65993  14.321   5.399   0.705 -0.1149 -0.3498  0.1347
    1WF      WF65994  10.638  29.537   8.910  0.1639 -0.1302 -0.0199
    1WF      WF65995   6.454  12.674   7.315  0.1296 -0.0781  0.4841
    1WF      WF65996  28.481  19.430   0.189 -0.1122  0.0695  0.2378
    1WF      WF65997   9.294  11.352   1.223 -0.0900  0.1407  0.0367
    1WF      WF65998  22.549  13.936   6.808 -0.2421  0.3798 -0.0542
    1WF      WF65999  18.583  16.866   9.238 -0.1970  0.0750 -0.0399
    1WF      WF66000   4.719  27.032   0.111  0.0048 -0.0515  0.1168
    1WF      WF66001   6.672   2.789   8.515 -0.2766  0.1561 -0.0601
    1WF      WF66002   6.566  10.729   7.295 -0.0102 -0.0935 -0.2439
    1WF      WF66003  16.094  11.694   9.200  0.0094 -0.0931 -0.1109
    1WF      WF66004   3.629  28.059   7.465  0.2525 -0.2888  0.0116
    1WF      WF66005  22.981  15.942   9.015 -0.0247 -0.3222 -0.0014
    1WF      WF66006  26.889   7.674   7.728  0.1361 -0.0583  0.0692
    1WF      WF66007   4.240  13.993   8.590  0.1063  0.0896 -0.0969
    1WF      WF66008   4.257  16.480   7.828 -0.1569  0.0507  0.1089
    1WF      WF66009  28.291   3.036   6.854  0.1468 -0.1431  0.1047
    1WF      WF66010   7.209   6.789   2.079 -0.1025  0.3379 -0.2071
    1WF      WF66011   5.706  18.899   9.181 -0.1718 -0.0588  0.1231
    1WF      WF66012   8.961  10.900   8.605 -0.3886 -0.2712 -0.1752
    1WF      WF66013  14.700  19.383   8.676  0.0937  0.0473  0.3998
    1WF      WF66014   8.307   8.233   7.019 -0.1396  0.1230 -0.0465
    1WF      WF66015  16.713  28.861   1.479  0.0295  0.0850 -0.2307
    1WF      WF66016  18.706   0.213   8.695 -0.4287  0.1267 -0.1801
    1WF      WF66017  12.163  26.507   8.892  0.0467  0.0301 -0.0066
    1WF      WF66018   1.829  24.407   8.017 -0.2562  0.0436  0.2250
    1WF      WF66019  11.370  11.644   7.075 -0.4740  0.0011 -0.1556
    1WF      WF66020  27.106  22.960   8.836 -0.2714  0.0978 -0.4182
    1WF      WF66021  17.943  25.610   8.303 -0.0300  0.0746 -0.3470
    1WF      WF66022   4.292  28.711   1.938  0.3113 -0.1524 -0.1673
    1WF      WF66023  12.163  26.147   0.233 -0.0439  0.1369 -0.1509
    1WF      WF66024   6.674  27.144   0.629 -0.2744 -0.0170 -0.1626
    1WF      WF66025   0.243  24.185   7.796  0.1229  0.2637  0.0925
    1WF      WF66026  14.842  21.174   2.101 -0.1386  0.1797 -0.1143
    1WF      WF66027   4.372   5.267   8.796  0.2547 -0.2531  0.0507
    1WF      WF66028  29.792   6.427   7.764  0.1176  0.4260 -0.1365
    1WF      WF66029  23.408  13.903   0.847  0.1199  0.1825  0.1288
    1WF      WF66030  18.115  29.466   8.220 -0.2447 -0.0692  0.0818
    1WF      WF66031  13.825   2.325   2.440 -0.0551 -0.1167  0.2139
    1WF      WF66032  28.640  18.975   0.025  0.0669 -0.0419  0.2893
    1WF      WF66033  19.929   2.101   0.328  0.1133 -0.2812 -0.1148
    1WF      WF66034  16.600  14.636   9.270 -0.1487 -0.1764 -0.1005
    1WF      WF66035  26.036   5.586   8.445  0.3433 -0.0226 -0.0209
    1WF      WF66036  26.449  29.747   1.479 -0.1350  0.1832 -0.2695
    1WF      WF66037   9.600  11.836   1.165 -0.2982  0.1966 -0.0666
    1WF      WF66038  27.886  26.316   0.769  0.0221  0.1908 -0.0613
    1WF      WF66039   8.636   1.086   9.197 -0.1323 -0.0159  0.1880
    1WF      WF66040  26.845  14.936   1.204  0.1931  0.2692  0.2212
    1WF      WF66041  18.336   5.346   0.472  0.3782 -0.1940 -0.0021
    1WF      WF66042   6.132  21.189   6.752  0.0941  0.1973 -0.2084
    1WF      WF66043  27.411  19.021   6.613 -0.0287  0.0513 -0.2568
    1WF      WF66044  10.478   4.673   0.717 -0.0328  0.0258 -0.1528
    1WF      WF66045  21.759   3.111   8.738 -0.1754  0.1393  0.3692
    1WF      WF66046  16.838  10.177   2.402 -0.0526 -0.1847 -0.2942
    1WF      WF66047  11.592  14.027   8.856  0.1736  0.1919  0.0284
    1WF      WF66048  24.458  11.150   0.320  0.0561 -0.3232  0.0350
    1WF      WF66049  23.636  26.643   2.104  0.1543  0.1731 -0.1909
    1WF      WF66050  18.168  23.315   0.005 -0.1172 -0.4042 -0.0639
    1WF      WF66051  23.779  14.928   1.988  0.0698 -0.0628  0.2381
    1WF      WF66052  16.824   6.521   7.449  0.0681 -0.1218 -0.1162
    1WF      WF66053  29.020  20.195   7.363 -0.0555  0.1869  0.1823
    1WF      WF66054  14.931   5.916   1.744  0.4012 -0.2955  0.1217
    1WF      WF66055  12.478   4.343   8.130 -0.0289  0.0343  0.0026
    1WF      WF66056  15.641  27.476   0.644  0.2961 -0.2783  0.2963
    1WF      WF66057  12.526   5.523   8.323 -0.1430  0.0662  0.1346
    1WF      WF66058  16.311   5.217   8.221 -0.0328  0.0144  0.2676
    1WF      WF66059   0.827  14.560   9.063  0.0175 -0.2312  0.0897
    1WF      WF66060   7.858  11.582   9.247  0.0495 -0.2156 -0.1516
    1WF      WF66061  20.919   6.034   0.847 -0.1427  0.0647 -0.1224
    1WF      WF66062  16.517  11.923   1.732  0.0669  0.1803 -0.2167
    1WF      WF66063  27.436  16.769   7.310 -0.2498 -0.0308 -0.1548
    1WF      WF66064  16.327  16.246   8.033 -0.1094 -0.4309 -0.1974
    1WF      WF66065   8.714  24.950   9.274  0.3893 -0.0639  0.0434
    1WF      WF66066   2.329   2.965   9.147  0.0497  0.0644 -0.2126
    1WF      WF66067  18.567  29.108   7.959  0.0065  0.0706  0.0884
    1WF      WF66068  11.722  29.175   2.854 -0.1427 -0.2160  0.0571
    1WF      WF66069   4.533  22.070   9.090 -0.3712  0.1348  0.0127
    1WF      WF66070  14.125   5.837   8.080 -0.2101 -0.1940  0.2661
    1WF      WF66071  24.448   0.943   1.282  0.2992  0.0378  0.1571
    1WF      WF66072   6.273  28.070   2.186  0.2286  0.0920 -0.1065
    1WF      WF66073   1.074  14.157   6.476  0.0032 -0.1002 -0.1997
    1WF      WF66074   5.832   3.261   3.877  0.0102 -0.1749 -0.0418
    1WF      WF66075  24.706  24.738   0.469 -0.0901  0.1743 -0.0319
    1WF      WF66076   1.843   6.802   0.678  0.0393 -0.1408  0.2574
    1WF      WF66077  13.832  17.634   9.047  0.0609  0.1146  0.1067
    1WF      WF66078  20.824  22.404   7.012  0.2096  0.0902 -0.0899
    1WF      WF66079   8.251  23.454   0.697  0.2808 -0.0778 -0.0820
    1WF      WF66080   0.071  11.007   0.534  0.3541  0.4464  0.0752
    1WF      WF66081  22.307  11.301   7.444 -0.0580  0.0624  0.3961
    1WF      WF66082  28.188  15.341   5.839  0.2592 -0.0494  0.3897
    1WF      WF66083  20.909  21.924   7.746  0.0797 -0.0424  0.1173
    1WF      WF66084  12.400   4.458   1.580  0.0825 -0.0220 -0.0511
    1WF      WF66085   1.220   7.904   0.730  0.0229  0.0808 -0.1676
    1WF      WF66086  21.353   5.779   0.722  0.0231 -0.2751  0.1361
    1WF      WF66087  22.598  10.631   1.045  0.0826 -0.1307  0.0006
    1WF      WF66088  28.997   6.429   1.099 -0.1809  0.0231  0.0439
    1WF      WF66089   0.365  13.776   1.350 -0.1309 -0.1322 -0.1722
    1WF      WF66090  10.771   3.122   3.737  0.0964  0.1812 -0.1370
    1WF      WF66091  29.280   9.348   0.135  0.1026  0.1170  0.0440
    1WF      WF66092   9.461  23.616   0.201  0.1041 -0.1408 -0.1194
    1WF      WF66093  14.133   3.770   0.907 -0.1250  0.0996 -0.1037
    1WF      WF66094   5.192   7.761   3.985 -0.0749  0.2017  0.0952
    1WF      WF66095  26.168  25.022   1.060  0.5532  0.2771 -0.0572
    1WF      WF66096  20.149  19.080   0.389  0.1065 -0.2649 -0.0384
    1WF      WF66097  21.799   2.374   0.991 -0.0630  0.1681  0.1878
    1WF      WF66098  18.061   0.158   1.161 -0.0007  0.0825  0.1706
    1WF      WF66099  21.130  22.100   0.933  0.0544 -0.1081  0.1509
    1WF      WF66100  18.425   9.966   0.610 -0.0969 -0.0217 -0.1280
    1WF      WF66101  28.799  17.645   6.015  0.0929  0.0209  0.0636
    1WF      WF66102   3.734  29.103   0.139  0.4543 -0.3128 -0.3665
    1WF      WF66103  26.931  16.936   7.068 -0.0936  0.1534 -0.1536
    1WF      WF66104   4.511  11.357   1.841 -0.4958  0.2806 -0.1811
    1WF      WF66105   8.685   1.636   9.303  0.1496 -0.1548  0.1126
    1WF      WF66106   0.640  22.776   8.706 -0.1621 -0.0311  0.1873
    1WF      WF66107  25.587  17.845   9.046  0.0163  0.0637 -0.2899
    1WF      WF66108  25.582   3.185   1.823 -0.2856 -0.0207 -0.0411
    1WF      WF66109   7.848   6.796   3.727  0.3024  0.3770 -0.1706
    1WF      WF66110  19.733  22.724   0.596 -0.3614  0.2156 -0.0822
    1WF      WF66111  27.468   8.993   1.140  0.2254  0.0302 -0.0013
    1WF      WF66112  25.149  20.318   9.197  0.2922 -0.3344 -0.1070
    1WF      WF66113  20.823   1.563   3.122  0.2171  0.4364  0.0338
    1WF      WF66114  20.335  27.996   1.484  0.1931  0.1100  0.0218
    1WF      WF66115  19.123  16.157   7.678  0.1667 -0.1798  0.0712
    1WF      WF66116  24.712  10.832   0.681  0.1105 -0.2547 -0.1247
    1WF      WF66117  28.331   5.587   6.236  0.0563 -0.1227  0.1187
    1WF      WF66118   7.354  12.938   8.569 -0.0084 -0.0649  0.0335
    1WF      WF66119  14.982   3.516   2.187 -0.1254  0.0354  0.2119
    1WF      WF66120  12.933   4.974   7.145 -0.6117 -0.1338 -0.0316
    1WF      WF66121   1.070   9.853   8.920  0.0161 -0.1547 -0.0269
    1WF      WF66122  18.836  22.322   1.310 -0.0291 -0.1230 -0.0123
    1WF      WF66123  29.064  23.135   9.425  0.0699 -0.3823 -0.1347
    1WF      WF66124  25.616   3.167   8.396  0.1870 -0.2714  0.2876
    1WF      WF66125  23.757  21.204   8.734  0.1371 -0.0038 -0.0784
    1WF      WF66126  28.290   6.576   0.472 -0.0341 -0.1124  0.0209
    1WF      WF66127  24.378  16.493   0.344  0.2109  0.0974 -0.1451
    1WF      WF66128  10.764  15.695   1.483 -0.0331  0.1221 -0.0111
    1WF      WF66129   9.839  14.984   8.275 -0.0042 -0.1843 -0.2214
    1WF      WF66130  10.477  14.020   9.371  0.0678 -0.1952 -0.0389
    1WF      WF66131  16.170  14.857   8.985 -0.2398 -0.2495 -0.1872
    1WF      WF66132  15.838   4.148   1.426  0.0564 -0.1890 -0.1064
    1WF      WF66133   4.523  19.087   0.961 -0.0267  0.0113 -0.1126
    1WF      WF66134  12.532   5.799   2.238  0.1563 -0.1757 -0.1164
    1WF      WF66135   9.769   3.255   0.107  0.0382  0.1944  0.0409
    1WF      WF66136  16.330  22.839   0.684  0.0089 -0.0184 -0.0906
    1WF      WF66137   3.170   4.564   0.911  0.0488 -0.2059  0.2070
    1WF      WF66138  25.418  13.211   7.728 -0.2085 -0.0085  0.1541
    1WF      WF66139  18.747  23.325   9.394 -0.5892  0.0305 -0.1849
    1WF      WF66140   0.043  18.803   2.004  0.1068 -0.0620  0.0080
    1WF      WF66141   2.679   3.054   8.779  0.0633 -0.1783  0.1659
    1WF      WF66142   7.183   6.338   9.211  0.2398  0.0062 -0.0154
    1WF      WF66143   5.403   9.933   0.785  0.2426 -0.1036  0.1136
    1WF      WF66144  11.973  19.007   2.258 -0.3248  0.0128 -0.4382
    1WF      WF66145  16.793  28.731   3.498  0.0770  0.1826 -0.1055
    1WF      WF66146   9.014   8.692   1.671 -0.1790  0.1644  0.1072
    1WF      WF66147  10.060  26.168   9.190  0.2255 -0.0348 -0.2708
    1WF      WF66148   2.718  12.448   1.156  0.1196  0.1616  0.0624
    1WF      WF66149  22.497   2.825   9.305  0.0895 -0.3626  0.0055
    1WF      WF66150  14.964  12.447   0.636  0.2297 -0.2748  0.3364
    1WF      WF66151  21.775  16.043   8.343 -0.0210  0.0774 -0.1165
    1WF      WF66152   0.305   7.220   1.063  0.1864  0.2950  0.0899
    1WF      WF66153  14.682   3.613   1.718  0.0809 -0.0356 -0.1017
    1WF      WF66154   3.423  28.158   1.097 -0.0358  0.1430  0.0702
    1WF      WF66155  22.932   0.593   6.859  0.0823  0.2033 -0.3108
    1WF      WF66156  14.352  26.487   2.108 -0.2371 -0.3505 -0.0634
    1WF      WF66157  28.764  22.824   0.144  0.3206 -0.0318  0.0941
    1WF      WF66158   5.759  27.759   0.395  0.1284  0.0700 -0.0504
    1WF      WF66159  26.449   8.279   8.625  0.1539 -0.0150 -0.0951
    1WF      WF66160   6.643  14.153   8.320  0.2777  0.0370 -0.0257
    1WF      WF66161  28.872  25.725   0.979 -0.2588  0.1364 -0.0522
    1WF      WF66162  19.892   3.997   1.646  0.0845  0.1301  0.1612
    1WF      WF66163  22.397  23.636   8.507  0.0339 -0.0815 -0.2115
    1WF      WF66164   5.757   9.791   1.093  0.3258 -0.2352  0.2012
    1WF      WF66165  22.436  22.812   0.890  0.1653 -0.0125  0.1035
    1WF      WF66166  13.191   6.667   1.127  0.0712  0.0586  0.2174
    1WF      WF66167  25.603  11.874   7.526 -0.2314  0.0817 -0.1495
    1WF      WF66168  28.329   8.632   2.652  0.3068  0.0756  0.0647
    1WF      WF66169  14.065  12.534   0.637 -0.1434  0.1203  0.0881
    1WF      WF66170  10.288  21.653   7.923 -0.0743 -0.0244 -0.1856
    1WF      WF66171  19.013   4.346   9.436 -0.0874  0.2190 -0.1955
    1WF      WF66172  12.745  11.888   1.203 -0.0931  0.2155 -0.2301
    1WF      WF66173   0.276   5.881   0.962 -0.2297 -0.0295 -0.1607
    1WF      WF66174  15.126  15.316   8.569 -0.0101 -0.0788 -0.0725
    1WF      WF66175  17.438  20.597   0.274  0.0047  0.0739 -0.2986
    1WF      WF66176  16.417   6.962   0.271 -0.3804 -0.2845  0.2624
    1WF      WF66177  20.243  16.879   0.504 -0.0130 -0.1098  0.0470
    1WF      WF66178  25.436   6.356   9.178 -0.0004  0.1533  0.0799
    1WF      WF66179  11.924  28.726   0.506 -0.1538 -0.1004 -0.2926
    1WF      WF66180   4.446  27.476   0.304 -0.0925  0.5955  0.1165
    1WF      WF66181   5.302   9.980   1.289  0.0392 -0.0360  0.0058
    1WF      WF66182  24.548  22.838   7.740  0.1438 -0.5082  0.3097
    1WF      WF66183   8.338   8.612   0.795 -0.1520 -0.2542 -0.1215
    1WF      WF66184  27.667  26.666   7.251 -0.1837  0.1834 -0.1258
    1WF      WF66185  14.164   7.514   6.668  0.0204 -0.0447  0.1635
    1WF      WF66186   0.515  12.960   7.583  0.0069  0.0133 -0.0409
    1WF      WF66187  14.189  28.267   0.745 -0.2285  0.0587  0.0374
    1WF      WF66188   2.423  16.503   0.263 -0.1779 -0.3162 -0.0573
    1WF      WF66189  26.888   1.522   3.282 -0.4452  0.3194 -0.1480
    1WF      WF66190  17.026   6.662   1.637 -0.1035 -0.0393  0.0615
    1WF      WF66191   1.851   3.663   1.324  0.1072 -0.2690  0.1791
    1WF      WF66192  28.976  25.750   2.226 -0.0265 -0.0254 -0.0297
    1WF      WF66193  19.161  25.925   8.870  0.1041  0.3096  0.0819
    1WF      WF66194  17.717  16.782   8.878  0.3118  0.0438  0.2013
    1WF      WF66195  14.751   5.774   8.036 -0.0746 -0.2079 -0.1400
    1WF      WF66196   6.853  27.255   8.299  0.0639 -0.1121 -0.0701
    1WF      WF66197  20.215  12.146   7.215 -0.0066 -0.2572 -0.2541
    1WF      WF66198  13.675  12.596   2.308  0.1509 -0.1127 -0.0252
    1WF      WF66199  17.752  13.182   8.864 -0.1826  0.0393 -0.3293
    1WF      WF66200   6.447   6.635   1.919 -0.1126  0.0258 -0.1409
    1WF      WF66201  15.671  28.756   1.802  0.3743  0.0240  0.3325
    1WF      WF66202  24.124  21.535   8.838  0.1821  0.2126  0.3995
    1WF      WF66203   9.488  20.771   0.221  0.0675 -0.0295  0.1326
    1WF      WF66204  20.933  18.547   9.081 -0.0642  0.1032  0.1584
    1WF      WF66205  27.569  15.319   8.053 -0.0800  0.0165 -0.0331
    1WF      WF66206  27.110  21.584   7.630 -0.0571 -0.0670  0.0732
    1WF      WF66207  26.818  24.628   9.456  0.0646  0.2103  0.1295
    1WF      WF66208  24.476  13.572   8.969 -0.0038 -0.1619  0.2710
    1WF      WF66209  28.644   7.168   7.437 -0.3308  0.1562 -0.3040
    1WF      WF66210   4.561   8.165   0.603 -0.0136  0.0920  0.2418
    1WF      WF66211  15.925  14.793   8.583  0.0781  0.0556 -0.2116
    1WF      WF66212   1.290  11.581   9.041 -0.2699  0.1177 -0.2295
    1WF      WF66213   5.253  11.360   6.480 -0.0542 -0.2086 -0.0169
    1WF      WF66214  29.126  17.469   9.044  0.0922 -0.1582 -0.1784
    1WF      WF66215  17.100   5.139   1.174 -0.3805  0.1160 -0.0795
    1WF      WF66216  28.627  14.126   8.023  0.0236  0.1937 -0.0962
    1WF      WF66217  11.632  20.128   7.403  0.0716  0.2569 -0.2463
    1WF      WF66218  28.292  10.968   8.071  0.0920 -0.1750 -0.0798
    1WF      WF66219  21.337  15.042   8.103  0.0112 -0.1235 -0.1066
    1WF      WF66220   5.879  19.240   8.832 -0.2637 -0.0043 -0.0921
    1WF      WF66221  20.179   7.826   8.841 -0.0774  0.1024  0.1542
    1WF      WF66222  25.940  16.235   7.822 -0.1642  0.0351  0.0789
    1WF      WF66223  24.799  21.345   7.910  0.0990  0.3849 -0.3702
    1WF      WF66224   6.769  27.592   0.847 -0.1286 -0.1665  0.0532
    1WF      WF66225  19.058  11.805   7.831 -0.0332 -0.3179 -0.2921
    1WF      WF66226  21.726  21.872   8.345 -0.3723  0.1981  0.0531
    1WF      WF66227  11.242   7.355   1.482 -0.0128  0.0656  0.1978
    1WF      WF66228  18.756   8.160   0.091 -0.2015 -0.1106  0.0216
    1WF      WF66229   9.771  10.140   0.839  0.0913  0.0604 -0.2075
    1WF      WF66230  28.515  10.645   0.174  0.0629 -0.2476  0.3409
    1WF      WF66231   1.457  20.979   1.426  0.1323 -0.1610  0.0857
    1WF      WF66232   2.253  10.050   1.202  0.0836 -0.0452 -0.1802
    1WF      WF66233  15.819  11.932   8.590 -0.1770  0.3073  0.2220
    1WF      WF66234  21.789  28.580   7.596  0.2144  0.2251  0.4410
    1WF      WF66235  14.988  28.240   2.105  0.4364 -0.2342 -0.2366
    1WF      WF66236   6.665  17.256   9.444  0.0643  0.3131  0.1477
    1WF      WF66237  12.237   7.971   0.726  0.0402 -0.1983 -0.2697
    1WF      WF66238   8.888   5.324   8.575  0.1448  0.2537  0.1039
    1WF      WF66239  26.630  26.859   6.245  0.1317 -0.1936  0.0969
    1WF      WF66240   4.779  10.846   8.072  0.0998  0.1050 -0.1396
    1WF      WF66241  15.398  13.555   9.143 -0.2677  0.0899 -0.0967
    1WF      WF66242  19.172   0.738   8.534 -0.0644  0.0060  0.0508
    1WF      WF66243   4.680  15.570   1.011 -0.1946 -0.0405  0.4608
    1WF      WF66244  24.900   2.892   3.739  0.1784  0.2234  0.3299
    1WF      WF66245  28.846   9.225   0.328 -0.0762 -0.0951 -0.2222
    1WF      WF66246  10.740   7.283   1.756 -0.0813  0.0231 -0.2321
    1WF      WF66247  13.713   1.859   0.317  0.2174 -0.0316 -0.1399
    1WF      WF66248  14.754   2.180   1.665  0.3109 -0.1320  0.4760
    1WF      WF66249  22.919   4.191   0.648  0.0172  0.0155 -0.0526
    1WF      WF66250  10.774  28.053   0.599  0.0345  0.0022 -0.0752
    1WF      WF66251  26.996  22.960   8.380 -0.3410  0.0059  0.1376
    1WF      WF66252  10.250   9.688   8.557 -0.0921 -0.1196 -0.3697
    1WF      WF66253  20.640   4.576   0.177  0.3337 -0.1567 -0.0403
    1WF      WF66254  28.101   9.066   6.515  0.0889 -0.1760 -0.5298
    1WF      WF66255  16.964  28.280   0.158 -0.3570  0.0341 -0.2564
    1WF      WF66256  22.439  21.361   2.201  0.0633  0.0914 -0.1053
    1WF      WF66257   2.178  14.831   8.617  0.0631 -0.2138 -0.3452
    1WF      WF66258  19.683  20.147   1.062 -0.3703  0.0944 -0.3042
    1WF      WF66259  28.367   2.154   2.405  0.0065 -0.0415  0.2281
    1WF      WF66260   8.565   6.418   0.699  0.0390  0.3163  0.1822
    1WF      WF66261   6.770   4.573   2.216  0.3153  0.1510  0.2244
    1WF      WF66262   3.229   3.107   1.724  0.1689 -0.0829 -0.1679
    1WF      WF66263  20.474  20.158   9.109  0.0787  0.0358 -0.0004
    1WF      WF66264  13.309   9.139   0.185  0.2655  0.0912  0.2058
    1WF      WF66265  26.670  21.689   7.891  0.2965 -0.2546  0.1394
    1WF      WF66266  14.500   1.408   9.418  0.1751  0.0184  0.0754
    1WF      WF66267  15.592  24.834   1.079  0.2369  0.1365  0.2110
    1WF      WF66268   2.921  16.946   6.949  0.0439 -0.3636  0.2253
    1WF      WF66269  14.712   5.595   0.452  0.0070  0.1760  0.0769
    1WF      WF66270  23.080  10.803   1.038  0.1391 -0.0240  0.2703
    1WF      WF66271  26.810  22.723   9.209 -0.0335 -0.0699  0.0505
    1WF      WF66272  14.225   9.497   0.998 -0.0590  0.2459  0.1896
    1WF      WF66273   7.380   9.248   2.253 -0.2677 -0.2118  0.0739
    1WF      WF66274   9.889  13.294   0.883  0.1534  0.0817 -0.3357
    1WF      WF66275   8.828   2.002   9.057  0.0892 -0.1864 -0.2646
    1WF      WF66276  28.461  28.069   6.271  0.1502 -0.1103  0.0099
    1WF      WF66277  13.206  26.845   0.466  0.1054 -0.0305  0.0997
    1WF      WF66278  15.107   7.284   3.149  0.1232 -0.0135 -0.0765
    1WF      WF66279   6.556  28.285   2.508 -0.1208 -0.2017  0.1098
    1WF      WF66280   5.334   0.024   0.357 -0.1350  0.0979 -0.1534
    1WF      WF66281  21.918  20.076   0.113  0.0814  0.0150  0.1341
    1WF      WF66282   7.848  28.453   7.820  0.1831  0.3294  0.0979
    1WF      WF66283   6.756   6.802   2.247  0.1448 -0.0611  0.0309
    1WF      WF66284   1.955   0.478   8.945 -0.0162  0.0958  0.2810
    1WF      WF66285  27.853   5.396   8.318  0.0987 -0.4377  0.1077
    1WF      WF66286   0.898   1.308   0.435 -0.2185 -0.4820  0.2456
    1WF      WF66287  28.762   1.775   1.461 -0.0114 -0.1446  0.0757
    1WF      WF66288  26.984   7.230   7.936  0.0762  0.2625  0.2204
    1WF      WF66289  21.823  18.756   0.893 -0.0625 -0.1757  0.1183
    1WF      WF66290   0.596   8.989   6.071  0.0515 -0.0047  0.1720
    1WF      WF66291   3.982  22.773   0.870  0.1030  0.0262  0.0967
    1WF      WF66292   0.810  14.270   6.921 -0.2686  0.0282  0.2760
    1WF      WF66293  29.779  24.429   1.483 -0.1717  0.0179 -0.0063
    1WF      WF66294  12.483  28.301   8.746 -0.2841  0.1090 -0.0061
    1WF      WF66295   1.991   5.075   1.552  0.1392  0.0903  0.0413
    1WF      WF66296   8.623   3.688   6.991  0.1100 -0.1452 -0.2404
    1WF      WF66297   9.870   2.741   9.279 -0.0181  0.1013  0.0887
    1WF      WF66298  24.547  22.618   6.862  0.0599 -0.1611 -0.0368
    1WF      WF66299  27.456  16.771   1.412  0.1358 -0.1505 -0.1063
    1WF      WF66300  14.108   5.090   8.709 -0.0163 -0.1030  0.1930
    1WF      WF66301  20.358  18.967   0.841  0.5267  0.1596  0.1842
    1WF      WF66302  25.780  16.374   1.997  0.2221  0.0120 -0.3722
    1WF      WF66303  22.226  29.627   7.571  0.1102 -0.0134 -0.1739
    1WF      WF66304  15.101  25.377   8.751  0.1219  0.0471  0.0367
    1WF      WF66305   0.066   6.060   8.209  0.1711 -0.0454 -0.0731
    1WF      WF66306   3.162  27.191   0.327 -0.0585 -0.1681  0.0521
    1WF      WF66307  26.943  13.909   9.096 -0.0314 -0.1009 -0.3349
    1WF      WF66308  24.193   3.994   0.949 -0.0811 -0.2680  0.0061
    1WF      WF66309   1.623   3.989   1.688 -0.1201  0.2465 -0.0324
    1WF      WF66310  26.644  18.545   9.137 -0.2539  0.0455 -0.5293
    1WF      WF66311   0.422   4.552   7.869  0.1187  0.0540  0.0249
    1WF      WF66312  18.022  29.014   1.539  0.1865  0.0756 -0.1082
    1WF      WF66313  26.331  20.024   9.247 -0.5075 -0.4741 -0.2910
    1WF      WF66314   3.658   0.296   7.997  0.1168 -0.0602 -0.2265
    1WF      WF66315   5.838  23.403   7.420 -0.1522 -0.0211  0.2181
    1WF      WF66316  16.219   1.972   6.643  0.2552 -0.1487 -0.0922
    1WF      WF66317   4.224   1.668   7.484 -0.0854 -0.0762 -0.1851
    1WF      WF66318  17.253  21.437   8.810 -0.0980 -0.1742 -0.3540
    1WF      WF66319  23.325  18.037   8.595 -0.0525  0.1284 -0.1364
    1WF      WF66320  17.548  13.782   2.630 -0.0506  0.0334 -0.0213
    1WF      WF66321  21.440  17.799   9.345  0.0408 -0.1610  0.3497
    1WF      WF66322  27.918  25.985   0.357 -0.0234  0.2935  0.1541
    1WF      WF66323   9.986   8.661   8.765  0.0286  0.1579 -0.0330
    1WF      WF66324  22.114   0.489   8.583  0.2223  0.0426 -0.1383
    1WF      WF66325   2.422  24.851   9.449 -0.1775  0.1696  0.1159
    1WF      WF66326  20.825   3.863   1.116 -0.6007 -0.0623  0.2753
    1WF      WF66327  21.515  29.346   9.313 -0.2278 -0.3265 -0.0512
    1WF      WF66328   4.254  21.503   0.757  0.1484  0.3135  0.0402
    1WF      WF66329  25.671  13.091   8.151 -0.2034 -0.1042 -0.2295
    1WF      WF66330  28.055  26.292   1.307  0.1934  0.0250 -0.0461
    1WF      WF66331   7.076  15.966   1.616  0.3076 -0.3470  0.0359
    1WF      WF66332  24.879  18.215   0.133 -0.2214 -0.2315 -0.1544
    1WF      WF66333  10.702  14.243   8.931 -0.0806 -0.1148 -0.0394
    1WF      WF66334  17.360  17.378   7.624  0.0758 -0.0646 -0.1960
    1WF      WF66335   9.735   3.650   0.803  0.2079 -0.0263 -0.2574
    1WF      WF66336   8.634   9.372   9.197 -0.1056  0.0221  0.3376
    1WF      WF66337  22.093  20.396   1.063  0.2324  0.1062  0.1361
    1WF      WF66338  27.499  17.005   0.913  0.0691  0.1009 -0.0537
    1WF      WF66339  23.331  19.291   0.857  0.0238 -0.0863 -0.1823
    1WF      WF66340  10.762  29.036   8.791  0.0830 -0.0047  0.0977
    1WF      WF66341  28.469  11.823   1.800 -0.0952 -0.3447 -0.2561
    1WF      WF66342  23.516  25.728   8.413  0.2291  0.3012  0.0496
    1WF      WF66343  23.939   5.427   8.803  0.1687  0.0707  0.0673
    1WF      WF66344  12.827  18.604   0.591 -0.1282 -0.0936 -0.1646
    1WF      WF66345  14.668   3.463   2.641 -0.0880 -0.0478  0.0832
    1WF      WF66346   3.693  13.526   1.578  0.1980  0.0108 -0.1984
    1WF      WF66347   8.647   5.200   3.096 -0.1467 -0.2000 -0.0934
    1WF      WF66348  17.236   6.650   2.106  0.0203 -0.1479  0.5630
    1WF      WF66349  12.947  27.827   7.588  0.4342 -0.0222 -0.1582
    1WF      WF66350  12.924  19.531   8.761  0.1913 -0.0355 -0.2276
    1WF      WF66351   3.458   7.714   1.381  0.0298 -0.0153 -0.1678
    1WF      WF66352   0.943  13.027   1.247 -0.0087  0.1895 -0.0210
    1WF      WF66353   5.774  26.406   8.306 -0.1895  0.0458 -0.2710
    1WF      WF66354  13.507  22.351   0.448  0.2236 -0.1368  0.1709
    1WF      WF66355  15.448  14.966   8.702  0.2750 -0.1633 -0.1296
    1WF      WF66356  10.266   9.104   1.291 -0.1965  0.1661 -0.3817
    1WF      WF66357  15.797  22.635   8.009  0.1815 -0.1428 -0.0217
    1WF      WF66358  18.292   3.519   7.513  0.1963  0.0984 -0.0932
    1WF      WF66359   1.441   7.830   7.525 -0.1963  0.0103  0.2389
    1WF      WF66360  18.859   6.425   1.616  0.0006 -0.2019  0.0383
    1WF      WF66361  21.311   0.324   3.050 -0.3625 -0.3527 -0.0568
    1WF      WF66362   7.531  11.755   0.140  0.0367  0.0914  0.1532
    1WF      WF66363   0.611  12.485   7.470  0.0941  0.0632 -0.0335
    1WF      WF66364  19.759  10.064   0.925  0.5234 -0.0421 -0.4418
    1WF      WF66365  28.003   0.350   1.590  0.0611  0.1401  0.0065
    1WF      WF66366  13.875   2.247   0.511 -0.1833  0.0289  0.0689
    1WF      WF66367   9.787  20.227   0.935 -0.2501 -0.3312  0.3407
    1WF      WF66368  21.532  22.897   0.815  0.1094 -0.0220 -0.1174
    1WF      WF66369  10.788  17.687   8.768 -0.1019  0.1742 -0.0122
    1WF      WF66370  28.545  27.959   0.882 -0.0748 -0.2811  0.0110
    1WF      WF66371   5.234   8.299   2.774  0.0906  0.1314  0.0009
    1WF      WF66372  14.790  24.387   9.225  0.0186  0.1366 -0.1589
    1WF      WF66373  26.771  12.430   7.890 -0.1415 -0.2333  0.2690
    1WF      WF66374   2.897  28.572   8.420  0.0522  0.0092 -0.0095
    1WF      WF66375   2.192  28.318   9.085 -0.0796 -0.0640  0.0040
    1WF      WF66376  24.976  19.720   2.128  0.0803 -0.0592  0.1658
    1WF      WF66377  17.074  25.978   8.059 -0.2257  0.1305 -0.0611
    1WF      WF66378  11.968  25.303   0.936 -0.2081  0.0387 -0.1012
    1WF      WF66379   2.769   9.986   0.772 -0.0590  0.0069  0.3082
    1WF      WF66380  23.502  19.096   1.322 -0.0669 -0.1943 -0.0704
    1WF      WF66381  22.510  16.086   9.007  0.1882  0.0689 -0.0565
    1WF      WF66382   6.995   8.620   0.890 -0.1440  0.1062 -0.1238
    1WF      WF66383  22.026  22.832   0.744 -0.2419 -0.3891 -0.1763
    1WF      WF66384   9.721   3.370   2.356  0.3486 -0.3466  0.3081
    1WF      WF66385  13.318   8.704   7.926  0.3587 -0.2577 -0.0505
    1WF      WF66386   8.495  21.555   6.937 -0.0979  0.3373 -0.0041
    1WF      WF66387  21.230  27.422   8.778 -0.4554  0.2042  0.3344
    1WF      WF66388  25.963   0.649   0.063 -0.0095  0.2121  0.1582
    1WF      WF66389  17.675   3.557   7.609  0.0751  0.0706  0.0708
    1WF      WF66390   4.897  26.040   2.761  0.0547  0.3816 -0.2000
    1WF      WF66391  20.777  27.873   1.730 -0.3162 -0.1577 -0.1685
    1WF      WF66392  17.194   9.414   1.296  0.0401 -0.0400  0.1939
    1WF      WF66393   8.882  20.701   6.782 -0.1666 -0.3532 -0.2169
    1WF      WF66394   9.939   1.383   8.331 -0.0524 -0.0662 -0.1223
    1WF      WF66395  19.155  26.868   8.049  0.0749  0.3122 -0.1659
    1WF      WF66396  17.056  24.656   2.942  0.0403 -0.0607 -0.0976
    1WF      WF66397   8.567  17.298   2.325 -0.1399 -0.0616 -0.0794
    1WF      WF66398  15.802   9.521   7.598  0.2197 -0.2243 -0.1025
    1WF      WF66399  12.796  17.050   0.130  0.1234  0.0468 -0.0833
    1WF      WF66400  20.368  28.977   7.850  0.1982  0.2100  0.3509
    1WF      WF66401   8.692  22.279   9.429 -0.2531 -0.2768 -0.2656
    1WF      WF66402  25.627  28.273   1.835 -0.0888  0.0344  0.2381
    1WF      WF66403  28.983  10.025   5.912  0.5694  0.5514 -0.1371
    1WF      WF66404  15.298  24.461   1.409  0.0623  0.1875  0.1255
    1WF      WF66405  26.052   0.528   7.879  0.0976 -0.1977  0.3208
    1WF      WF66406  22.843  27.281   1.414  0.3275  0.1772 -0.1483
    1WF      WF66407  15.122  14.732   1.268  0.0858 -0.0257  0.3520
    1WF      WF66408  27.360  25.385   7.195 -0.1054  0.1695  0.1689
    1WF      WF66409  28.739   8.279   2.062  0.0963  0.1337  0.1562
    1WF      WF66410  27.172  23.382   8.571 -0.0331 -0.1196 -0.2262
    1WF      WF66411  22.081  28.275   7.829  0.0816  0.4813 -0.0950
    1WF      WF66412  22.750  22.667   1.304 -0.1059 -0.0543 -0.2111
    1WF      WF66413   0.992  18.049   9.119 -0.1072 -0.1519 -0.1153
    1WF      WF66414  13.592  16.142   9.299 -0.0260 -0.0563  0.2664
    1WF      WF66415   5.050   8.089   1.673 -0.2175  0.1644 -0.1647
    1WF      WF66416  10.485  11.037   0.450 -0.0728 -0.3437 -0.1418
    1WF      WF66417   5.546  17.418   8.935  0.5019 -0.3655  0.3935
    1WF      WF66418   2.822   4.412   2.024 -0.1315 -0.0103  0.3767
    1WF      WF66419   2.602   9.256   2.370  0.0998  0.2048  0.3691
    1WF      WF66420  20.620  17.860   2.030 -0.3214  0.2191  0.1828
    1WF      WF66421   2.270   7.707   0.893 -0.0716 -0.0441 -0.1319
    1WF      WF66422   8.130   8.462   0.375  0.1192 -0.2660  0.0828
    1WF      WF66423   7.714  11.116   7.899  0.1138  0.1736  0.1400
    1WF      WF66424   2.097  22.735   6.765 -0.3119  0.0889 -0.1030
    1WF      WF66425  13.709  29.104   1.145  0.1002  0.1212 -0.0008
    1WF      WF66426  23.230   9.681   3.083  0.1090  0.1233 -0.0289
    1WF      WF66427  20.612  15.252   6.288 -0.0618  0.1150  0.1970
    1WF      WF66428   2.831  18.637   0.516  0.1567  0.0902 -0.0454
    1WF      WF66429   2.572  19.751   5.942  0.3497  0.0387 -0.2910
    1WF      WF66430   4.694  14.311   7.386 -0.0878 -0.1017  0.0652
    1WF      WF66431  18.627   7.144   7.422  0.1740 -0.3311 -0.0154
    1WF      WF66432   1.228  11.745   2.560  0.1431  0.0659 -0.1117
    1WF      WF66433   0.792  23.757   9.282 -0.0175  0.0369  0.3384
    1WF      WF66434  12.175  16.334   1.294 -0.2034 -0.0145 -0.0253
    1WF      WF66435  14.090   4.923   3.200 -0.1163 -0.3417 -0.2527
    1WF      WF66436  18.418  27.760   9.385  0.0672  0.0789 -0.1424
    1WF      WF66437  25.812  21.072   0.920 -0.1359  0.0979  0.3506
    1WF      WF66438  18.450   4.373   9.348  0.2229 -0.1264  0.2773
    1WF      WF66439  24.898  13.612   8.539 -0.0338 -0.0940 -0.0948
    1WF      WF66440  21.317  12.180   8.459  0.1328 -0.1202 -0.2984
    1WF      WF66441   6.483  24.949   0.843  0.0053 -0.0654  0.0839
    1WF      WF66442  13.312  20.302   1.642  0.0264  0.1067  0.1834
    1WF      WF66443  23.182  11.217   0.798 -0.0545 -0.1911 -0.3995
    1WF      WF66444   5.216  11.484   2.778  0.1038 -0.0234  0.0072
    1WF      WF66445  11.947  18.486   7.762 -0.0313  0.0320  0.0585
    1WF      WF66446   2.785   0.022   1.835 -0.0312  0.3182  0.1399
    1WF      WF66447  20.049  21.726   8.990 -0.0216 -0.2993  0.2009
    1WF      WF66448  12.006  16.581   0.861  0.0741  0.0726 -0.1665
    1WF      WF66449  19.099  11.995   8.326 -0.1921  0.3537  0.1797
    1WF      WF66450  16.466   8.697   7.491  0.1110  0.0239  0.0194
    1WF      WF66451  15.169  19.508   0.312  0.0898 -0.0994  0.1637
    1WF      WF66452  25.969  10.715   7.855  0.1001 -0.0912  0.2167
    1WF      WF66453  11.699   8.766   1.302  0.0668 -0.2512 -0.1664
    1WF      WF66454  12.699  24.226   0.233 -0.1649  0.1366  0.1816
    1WF      WF66455  14.738   5.137   0.907  0.0081 -0.3112 -0.1293
    1WF      WF66456   9.559  19.613   8.845  0.0877 -0.0859  0.0845
    1WF      WF66457  25.289  26.390   7.740 -0.0168  0.4625  0.1713
    1WF      WF66458  27.399  24.677   1.186  0.2232 -0.0164  0.1688
    1WF      WF66459  19.784  28.339   8.335  0.0764 -0.0903 -0.1445
    1WF      WF66460   7.871   3.702   1.651  0.1834  0.1282 -0.0012
    1WF      WF66461  14.806  16.543   0.932  0.0135 -0.2733 -0.0354
    1WF      WF66462  24.976  22.960   7.584  0.0817 -0.1254 -0.1093
    1WF      WF66463  14.527  10.689   2.405 -0.0836 -0.1736 -0.2098
    1WF      WF66464  13.372  29.116   1.546 -0.1576  0.1120 -0.0637
    1WF      WF66465   4.582   4.256   2.547 -0.0425  0.3260  0.0430
    1WF      WF66466  14.006  21.442   7.475 -0.0341 -0.0468  0.0152
    1WF      WF66467  26.776   6.228   9.140 -0.0668  0.1418  0.3049
    1WF      WF66468  21.468   6.241   8.969  0.2126 -0.0030 -0.2201
    1WF      WF66469  26.004  17.948   0.072 -0.1548  0.0390 -0.0960
    1WF      WF66470  10.965  26.836   0.563  0.4616 -0.2434  0.0006
    1WF      WF66471   0.801  21.762   8.621  0.0892 -0.0570  0.1452
    1WF      WF66472  27.855  16.608   7.149  0.1944 -0.3369 -0.0454
    1WF      WF66473  24.654  22.931   7.217  0.0962  0.0273 -0.2977
    1WF      WF66474  23.798  17.984   8.315 -0.2998  0.0144  0.3630
    1WF      WF66475  16.431  17.183   9.113 -0.1425  0.3312  0.0359
    1WF      WF66476   4.176  22.559   8.502  0.0846 -0.2464  0.0559
    1WF      WF66477   2.538  22.536   6.903 -0.0176 -0.0213 -0.1954
    1WF      WF66478   3.741   5.883   2.117  0.2213 -0.2302  0.0082
    1WF      WF66479  22.771   8.638   1.332 -0.0485 -0.0541  0.2040
    1WF      WF66480  20.067   7.414   6.382  0.0349 -0.2507  0.1817
    1WF      WF66481  21.927   6.850   0.311 -0.0915 -0.0315  0.0270
    1WF      WF66482   0.403   5.302   2.607 -0.1485  0.4204  0.1981
    1WF      WF66483  20.041  29.624   0.181 -0.1884 -0.2342 -0.2376
    1WF      WF66484   1.189  17.344   8.757  0.1680  0.3829  0.2801
    1WF      WF66485  25.796  24.146   1.372 -0.0702 -0.0120 -0.1849
    1WF      WF66486  12.072  18.660   8.202 -0.0576  0.0992 -0.0462
    1WF      WF66487  14.311   1.472   8.997 -0.0459 -0.1226  0.0787
    1WF      WF66488  16.022   2.953   9.302  0.3308  0.0609 -0.1143
    1WF      WF66489  20.256   6.093   8.556 -0.3137 -0.0892 -0.2497
    1WF      WF66490  21.369   7.921   8.580  0.2274 -0.1581  0.1838
    1WF      WF66491   8.907   3.789   1.332  0.0531  0.1507  0.0930
    1WF      WF66492  23.072  25.036   2.612 -0.0623 -0.1765  0.2154
    1WF      WF66493  27.708  26.755   1.019 -0.1958  0.0174  0.0360
    1WF      WF66494  25.090   3.061   8.347  0.1186  0.1060 -0.0919
    1WF      WF66495   3.759   1.019   1.461  0.2140  0.2682  0.0721
    1WF      WF66496   8.395  13.625   6.602  0.0350  0.0923  0.0835
    1WF      WF66497  22.507   1.932   9.078  0.3664  0.2837  0.1999
    1WF      WF66498  15.414  28.372   1.968  0.0686  0.0236 -0.0734
    1WF      WF66499  17.973  10.392   6.144  0.1253 -0.3289  0.2566
    1WF      WF66500  23.132  11.433   6.702 -0.0112  0.1191 -0.1290
    1WF      WF66501  14.970   3.751   0.581  0.1471  0.0960 -0.1696
    1WF      WF66502  24.333   4.418   6.598 -0.2168 -0.0911  0.0881
    1WF      WF66503   0.499  19.918   9.219  0.1124 -0.3250  0.0806
    1WF      WF66504  19.732   1.315   2.009  0.2193 -0.1454 -0.0255
    1WF      WF66505  18.869  24.453   9.093  0.1292  0.2972 -0.0382
    1WF      WF66506  28.300   5.329   7.421  0.0323  0.2376 -0.3063
    1WF      WF66507  28.196   8.261   9.386 -0.1339  0.0678  0.4949
    1WF      WF66508  22.533   8.033   8.152  0.0484  0.1844 -0.4387
    1WF      WF66509   6.266   6.906   2.403  0.1975  0.0343  0.1249
    1WF      WF66510  16.615  14.847   8.830  0.1456  0.1428 -0.0110
    1WF      WF66511  20.898  24.285   1.318  0.1768  0.0935 -0.1203
    1WF      WF66512  26.964  15.730   1.574  0.2306  0.2407  0.1263
    1WF      WF66513   2.871  21.769   9.133  0.0657 -0.0287 -0.1309
    1WF      WF66514  24.112   5.484   9.255 -0.2184 -0.2696  0.0444
    1WF      WF66515  24.387  24.788   0.067 -0.1540 -0.3571  0.1906
    1WF      WF66516  23.708   2.238   8.868 -0.0033 -0.0083  0.3219
    1WF      WF66517   0.937   0.770   7.455 -0.0307  0.1245 -0.2208
    1WF      WF66518  15.665  13.208   8.219  0.5131  0.2536  0.2886
    1WF      WF66519  13.769  22.676   7.841  0.0079 -0.0408  0.0847
    1WF      WF66520  14.267  13.511   0.440  0.1319  0.0586 -0.2178
    1WF      WF66521  25.778  19.448   1.366  0.0522  0.2289 -0.1758
    1WF      WF66522   2.394   2.210   9.406  0.0273  0.1500  0.1181
    1WF      WF66523  23.507  12.366   5.768 -0.0808 -0.2270  0.2237
    1WF      WF66524  16.055   8.568   1.096  0.3695 -0.0302  0.2810
    1WF      WF66525  11.407  16.008   8.583  0.1224 -0.1687  0.1681
    1WF      WF66526  16.992  20.672   0.652  0.2217 -0.1682 -0.3814
    1WF      WF66527   9.159   7.555   1.838 -0.0880 -0.0251  0.3571
    1WF      WF66528  22.708   0.455   0.986  0.0403  0.3169 -0.1427
    1WF      WF66529  10.319  14.981   6.710  0.2829  0.0579  0.2326
    1WF      WF66530  15.309  20.445   8.781 -0.1353  0.1879 -0.1894
    1WF      WF66531   6.065  20.245   0.172 -0.1812  0.1177  0.0282
    1WF      WF66532  24.037  20.894   1.169  0.4108  0.0630 -0.1885
    1WF      WF66533   5.654  21.556   8.005  0.3345  0.1266 -0.0194
    1WF      WF66534  10.863  13.713   8.909  0.0817 -0.1686  0.0332
    1WF      WF66535   8.370  13.609   1.507 -0.0091 -0.2115 -0.0728
    1WF      WF66536  20.949  11.685   8.089 -0.0318  0.0480  0.1755
    1WF      WF66537   1.430   4.397   0.035 -0.0158 -0.0821 -0.0056
    1WF      WF66538   3.878  26.934   7.480  0.3275 -0.0128 -0.0659
    1WF      WF66539  21.248  22.843   1.613  0.0272 -0.2727 -0.1045
    1WF      WF66540  13.140   7.012   1.444 -0.0753 -0.0633  0.0038
    1WF      WF66541  13.395   2.436   2.661 -0.2560  0.0860 -0.2104
    1WF      WF66542  24.047  13.179   9.068  0.0534  0.0589 -0.0096
    1WF      WF66543  23.611  19.413   0.439  0.2229  0.0266  0.1019
    1WF      WF66544   4.863  29.723   1.294 -0.0794 -0.1098 -0.0782
    1WF      WF66545   7.278  27.327   7.466 -0.0774 -0.1084  0.1239
    1WF      WF66546  29.023   6.382   8.338 -0.1240 -0.2069 -0.3023
    1WF      WF66547  25.432  16.304   5.666  0.1601  0.0174  0.2965
    1WF      WF66548  29.533  11.252   0.755 -0.1493  0.2057 -0.0589
    1WF      WF66549  23.942   0.903   1.386 -0.1432 -0.0266  0.0965
    1WF      WF66550  25.587  14.783   7.939  0.0155 -0.0536 -0.0484
    1WF      WF66551   4.782  19.201   7.658 -0.0650  0.0458  0.1241
    1WF      WF66552   4.124  21.913   9.332 -0.1409  0.0796  0.3268
    1WF      WF66553  26.113  17.688   0.722 -0.3034  0.0157 -0.2272
    1WF      WF66554   5.047   4.534   8.248 -0.1378  0.0691  0.0353
    1WF      WF66555  16.898   9.086   2.141 -0.0201  0.0049 -0.2707
    1WF      WF66556  18.686  20.114   0.886  0.1450 -0.3123  0.2597
    1WF      WF66557  19.068  10.856   7.423  0.1594  0.1023  0.1472
    1WF      WF66558  19.649  12.517   0.364  0.1026 -0.2591  0.1349
    1WF      WF66559  17.978  23.980   2.338  0.1562  0.2839 -0.0159
    1WF      WF66560  29.366   9.144   0.572 -0.1381  0.0373  0.2348
    1WF      WF66561   2.135   3.273   1.227  0.1688  0.0916 -0.0551
    1WF      WF66562  26.048   0.114   0.762 -0.2651 -0.0247 -0.1034
    1WF      WF66563  20.657  19.923   6.726  0.3245 -0.0228  0.0839
    1WF      WF66564  22.525   8.106   7.687  0.1045  0.1924  0.1263
    1WF      WF66565  12.919  11.435   0.881  0.3374  0.0052  0.0323
    1WF      WF66566   6.898  20.825   0.108 -0.0240 -0.0840  0.0156
    1WF      WF66567   6.552  24.869   2.631  0.2489  0.0162 -0.0515
    1WF      WF66568  24.119  19.692   7.930 -0.0190  0.0840  0.0555
    1WF      WF66569  12.360   1.553   2.153 -0.1877  0.1076  0.3579
    1WF      WF66570  23.001  10.854   8.956  0.2346 -0.3770  0.1088
    1WF      WF66571   8.299   3.271   3.576  0.0039  0.1958 -0.1244
    1WF      WF66572   3.213  22.635   7.973  0.2052  0.0821  0.2609
    1WF      WF66573   5.289  21.467   7.595 -0.2033  0.1456  0.1302
    1WF      WF66574  25.376  21.949   6.415 -0.1309 -0.0196  0.0567
    1WF      WF66575   0.618  10.219   0.641  0.1752 -0.1348  0.0492
    1WF      WF66576  26.131   3.300   1.209  0.3167  0.0491 -0.3746
    1WF      WF66577  18.866  10.289   0.459 -0.1855  0.0236  0.1392
    1WF      WF66578  10.504   7.852   3.236 -0.1012  0.0321  0.3799
    1WF      WF66579   4.009  20.052   8.798  0.1438 -0.2482 -0.0278
    1WF      WF66580  21.531  11.580   9.138 -0.2785  0.0387 -0.1378
    1WF      WF66581   1.265  28.354   2.932  0.1193  0.2430 -0.0012
    1WF      WF66582  21.693   6.513   9.308  0.2039 -0.1961 -0.2260
    1WF      WF66583  14.150   9.761   6.677  0.0597 -0.0773  0.2319
    1WF      WF66584  25.410   5.343   0.621  0.0393  0.0426  0.1465
    1WF      WF66585  27.130  13.629   7.273 -0.1029  0.1746 -0.2472
    1WF      WF66586   9.881   6.413   7.054 -0.0334  0.1831 -0.0048
    1WF      WF66587   8.517   8.629   1.569  0.2540  0.0346  0.1558
    1WF      WF66588   8.961  27.406   0.495  0.2189  0.2280 -0.0591
    1WF      WF66589  21.209   3.533   1.188  0.2021 -0.0577 -0.1404
    1WF      WF66590  19.795  25.161   0.491  0.1600 -0.2604 -0.1736
    1WF      WF66591   9.196  22.184   7.390  0.0720  0.0705  0.0135
    1WF      WF66592  14.550  26.038   0.005  0.1712 -0.1110  0.2693
    1WF      WF66593  27.748  19.814   1.393  0.1328  0.1444  0.1711
    1WF      WF66594  13.309  14.684   9.272 -0.0795  0.0323  0.1844
    1WF      WF66595  23.485  11.018   9.235 -0.0030 -0.1627 -0.0937
    1WF      WF66596   4.512   7.747   8.191  0.0944 -0.1007  0.0152
    1WF      WF66597   0.429  27.372   1.292 -0.2826 -0.1055 -0.3441
    1WF      WF66598  23.901  12.652   7.901 -0.0891 -0.0618  0.2594
    1WF      WF66599   3.022   7.459   0.192 -0.4179 -0.0051  0.1743
    1WF      WF66600  23.191  27.696   8.249 -0.0758  0.0665 -0.2552
    1WF      WF66601  26.961   4.083   0.917 -0.1752 -0.0957 -0.2529
    1WF      WF66602  14.631   9.851   0.833 -0.0690  0.1276  0.2301
    1WF      WF66603   9.312   8.569   7.275 -0.3579 -0.0265 -0.0787
    1WF      WF66604  23.822  24.811   1.880  0.0316  0.1403 -0.0747
    1WF      WF66605  20.101   8.566   7.941  0.2058  0.2064  0.0466
    1WF      WF66606  10.388   7.626   1.880 -0.2612  0.2949 -0.0396
    1WF      WF66607  29.564  25.619   9.290 -0.1967  0.1700  0.0441
    1WF      WF66608   6.502  26.928   6.784 -0.0180 -0.3152 -0.0394
    1WF      WF66609  24.322   7.669   6.117  0.1735 -0.4679  0.1572
    1WF      WF66610  15.152   4.140   0.316 -0.2134  0.2665  0.2803
    1WF      WF66611  10.546   6.006   9.326 -0.2418  0.2080 -0.0876
    1WF      WF66612  19.875  13.521   8.838 -0.2436  0.3215 -0.1243
    1WF      WF66613   7.255  25.512   8.452  0.0355  0.0352 -0.2175
    1WF      WF66614  23.301  11.111   0.319 -0.2091  0.0348 -0.2613
    1WF      WF66615  28.531  16.480   9.009  0.3221 -0.2549  0.0921
    1WF      WF66616  17.393  26.609   0.215 -0.0137 -0.0616 -0.1319
    1WF      WF66617   7.012  22.388   5.455  0.1010 -0.3553  0.0365
    1WF      WF66618  22.367  18.749   3.067  0.2246 -0.0462  0.0611
    1WF      WF66619   5.936  15.138   6.627  0.0688 -0.2035  0.1648
    1WF      WF66620   2.547  20.046   7.520 -0.2213  0.1749  0.2567
    1WF      WF66621   4.083  16.391   0.220  0.0563  0.0781 -0.0266
    1WF      WF66622  18.778  22.676   1.719 -0.1487 -0.3675 -0.0265
    1WF      WF66623   7.123  11.967   0.622  0.0880  0.0206  0.0987
    1WF      WF66624  13.956   1.186   9.207 -0.0303  0.2435 -0.0932
    1WF      WF66625  22.405  15.289   1.714  0.0711  0.1971  0.1075
    1WF      WF66626   3.702  29.521   0.492  0.5379  0.0650  0.1059
    1WF      WF66627  25.772  28.304   0.720 -0.0410  0.5921  0.2819
    1WF      WF66628  15.214   5.688   0.322 -0.0075 -0.1991  0.0172
    1WF      WF66629   2.401  10.376   0.831 -0.1332 -0.0834 -0.2765
    1WF      WF66630  18.161   2.779   8.830  0.3148  0.1655 -0.2791
    1WF      WF66631  15.662  18.555   7.795  0.1127 -0.5683  0.1797
    1WF      WF66632  15.434  20.389   9.324 -0.1091  0.0991 -0.1420
    1WF      WF66633  24.885   8.349   1.085  0.1493  0.0727  0.0008
    1WF      WF66634   0.007   7.709   8.626  0.0726 -0.4216 -0.3017
    1WF      WF66635   8.321  28.783   1.260  0.0487  0.2722 -0.2092
    1WF      WF66636  16.468   6.892   7.667  0.2706 -0.1358 -0.3711
    1WF      WF66637   7.467  22.481   7.658  0.0364  0.2576  0.1111
    1WF      WF66638  17.143  18.963   1.244 -0.2140 -0.1741  0.0852
    1WF      WF66639  21.555  17.037   1.071  0.1991 -0.0503 -0.1578
    1WF      WF66640  28.248  28.941   8.519  0.2092 -0.0839  0.2948
    1WF      WF66641  25.682  29.064   9.134  0.0931 -0.3253  0.0497
    1WF      WF66642   9.080  20.049   1.891 -0.0977 -0.0572  0.0275
    1WF      WF66643  24.684   5.009   0.598 -0.0845 -0.3957  0.1508
    1WF      WF66644  10.682  22.847   0.611  0.1660 -0.1958  0.2506
    1WF      WF66645   4.017  18.129   0.327  0.0752 -0.2099 -0.3511
    1WF      WF66646  20.375  19.702   1.480 -0.1632  0.0992  0.0365
    1WF      WF66647   6.608  16.399   8.328 -0.1638 -0.0309 -0.3956
    1WF      WF66648  14.372  25.961   2.124 -0.2144 -0.1252 -0.1779
    1WF      WF66649  24.212   8.655   8.685 -0.2465  0.1518 -0.1324
    1WF      WF66650   2.231  11.333   8.928 -0.4195 -0.1166  0.0491
    1WF      WF66651   3.263   8.258   2.302 -0.0724  0.1019  0.0416
    1WF      WF66652  15.544  25.507   7.404  0.1821  0.3478  0.2410
    1WF      WF66653   4.240  22.961   8.144  0.2299  0.0615  0.2424
    1WF      WF66654  23.901  28.325   0.207  0.1507 -0.1753 -0.0159
    1WF      WF66655  10.614  17.103   0.741  0.1160  0.2037  0.1432
    1WF      WF66656  12.357  14.503   9.255 -0.1656  0.4190 -0.0086
    1WF      WF66657   1.399   2.727   8.947  0.0341  0.1007  0.1805
    1WF      WF66658   0.763  11.561   8.167 -0.0289  0.4245 -0.1222
    1WF      WF66659  13.694   3.800   1.187 -0.1789 -0.1051  0.2032
    1WF      WF66660  20.295  11.137   8.533 -0.0921  0.0326 -0.1777
    1WF      WF66661   1.234  10.199   8.590  0.0998 -0.0303  0.0830
    1WF      WF66662  28.982  11.760   1.559 -0.2486  0.3665  0.2539
    1WF      WF66663  19.901  19.545   0.365 -0.0414  0.0084  0.0704
    1WF      WF66664  15.643   7.257   1.192 -0.0737 -0.0250 -0.0056
    1WF      WF66665  25.285   2.279   8.732  0.0694 -0.1670 -0.0556
    1WF      WF66666   9.286  10.175   3.412  0.4862 -0.0630  0.2011
    1WF      WF66667  14.142   1.458   8.017  0.1040  0.1099 -0.4226
    1WF      WF66668  24.989  13.931   0.625 -0.0583  0.4811  0.1546
    1WF      WF66669   7.573  14.067   0.052 -0.1892  0.0408  0.2117
    1WF      WF66670  24.486  28.960   2.346  0.5168  0.1515  0.0624
    1WF      WF66671  26.070  27.220   1.563 -0.2602  0.1690 -0.0845
    1WF      WF66672   0.845   9.715   7.299 -0.0938  0.1533 -0.1379
    1WF      WF66673  27.490  12.559   1.241 -0.1603 -0.1499  0.3851
    1WF      WF66674   4.034  20.300   8.358 -0.1242 -0.0930  0.2541
    1WF      WF66675  26.817  16.962   9.318 -0.2679 -0.1447 -0.1270
    1WF      WF66676  23.834  14.162   6.484  0.0976 -0.1610  0.1452
    1WF      WF66677  26.690  10.893   9.285  0.2022 -0.0041 -0.1102
    1WF      WF66678   8.949   1.223   2.012 -0.0778  0.2100 -0.2228
    1WF      WF66679  16.886  12.372   0.583 -0.0916  0.1204  0.0725
    1WF      WF66680   9.164   1.425   8.401 -0.1286  0.0310 -0.4067
    1WF      WF66681  22.881  24.908   8.666 -0.1992 -0.3022 -0.0893
    1WF      WF66682   6.453   2.454   2.906 -0.2986 -0.0457  0.1010
    1WF      WF66683  10.968   1.780   1.804  0.0487  0.0877  0.2943
    1WF      WF66684  19.811  24.551   8.428  0.0021  0.1148 -0.2768
    1WF      WF66685   3.113  27.612   0.096  0.4213 -0.0734 -0.2016
    1WF      WF66686  17.641  19.099   0.435 -0.1224  0.2425  0.1220
    1WF      WF66687   1.632   1.174   3.164  0.0514  0.0865 -0.1102
    1WF      WF66688   0.567   3.398   0.649 -0.0109 -0.0497  0.0284
    1WF      WF66689   2.875  14.090   1.313  0.0587  0.3040 -0.0495
    1WF      WF66690  10.268  11.366   0.880  0.1285  0.2164 -0.0718
    1WF      WF66691  17.783   1.871   0.452 -0.0941 -0.2732 -0.0682
    1WF      WF66692  26.930  22.728   1.144  0.0176 -0.1167  0.1164
    1WF      WF66693   1.309  27.349   7.542 -0.1264  0.3197  0.1815
    1WF      WF66694  28.660   2.275   1.979  0.2927  0.2992  0.0512
    1WF      WF66695  19.057  15.643   7.682  0.1098 -0.0911 -0.1532
    1WF      WF66696  22.871   2.658   9.039 -0.3799 -0.0329 -0.1263
    1WF      WF66697  24.020   2.852   2.626 -0.2232  0.1804  0.0505
    1WF      WF66698  20.532  18.514   0.582 -0.0336 -0.0930  0.0638
    1WF      WF66699  12.602   2.823   1.201  0.1867 -0.1831  0.0081
    1WF      WF66700   8.899  14.387   0.381  0.0245 -0.1157 -0.0483
    1WF      WF66701  21.520   8.735   8.951 -0.0612  0.2878  0.0379
    1WF      WF66702  26.726   1.025   1.912 -0.3360 -0.1174  0.1369
    1WF      WF66703  20.407  22.505   2.045 -0.1596 -0.0903 -0.2727
    1WF      WF66704   4.794  26.205   9.009  0.2657  0.1832  0.2189
    1WF      WF66705  14.895  10.064   9.405 -0.3146  0.1454  0.1802
    1WF      WF66706   3.280  21.041   8.575  0.1602  0.1457  0.1349
    1WF      WF66707  15.934  29.711   0.516  0.1736  0.1778  0.0075
    1WF      WF66708  24.261   0.521   1.210  0.5001 -0.1120 -0.0876
    1WF      WF66709  15.863  12.399   8.462 -0.0941 -0.1181  0.1173
    1WF      WF66710  16.573   2.864   2.082 -0.1565 -0.0404 -0.0913
    1WF      WF66711  14.135   5.369   1.207 -0.1170  0.1580 -0.1440
    1WF      WF66712  17.047   7.034   2.445 -0.0990 -0.2323 -0.1585
    1WF      WF66713  17.445  20.826   1.682  0.1294 -0.0442 -0.0855
    1WF      WF66714  15.524  12.706   8.190  0.0633 -0.1764 -0.2424
    1WF      WF66715   8.098   8.769   1.910 -0.2099 -0.1686  0.1729
    1WF      WF66716   6.369   2.509   1.874  0.0426 -0.1105 -0.1026
    1WF      WF66717   2.427  25.362   8.387 -0.0209 -0.1031  0.2543
    1WF      WF66718  17.476   4.413   1.214  0.0487  0.1710 -0.3001
    1WF      WF66719   1.337  28.343   0.399 -0.0893 -0.0655 -0.1274
    1WF      WF66720  12.542   1.942   2.409  0.1634 -0.0411  0.0217
    1WF      WF66721  10.225  26.412   8.777 -0.0059 -0.0582 -0.0307
    1WF      WF66722  14.245  20.188   8.531 -0.1821  0.1898 -0.1368
    1WF      WF66723   5.480  25.389   9.319  0.2317 -0.1976 -0.1502
    1WF      WF66724  12.600  10.425   8.155  0.0346 -0.0554  0.2616
    1WF      WF66725  18.333  11.510   9.345  0.4847 -0.1836 -0.4056
    1WF      WF66726  16.650  26.128   8.384  0.0433 -0.4726  0.1475
    1WF      WF66727  29.513  26.664   7.630  0.2009 -0.1616  0.4002
    1WF      WF66728   7.245   3.090   8.369 -0.2434  0.0306 -0.1983
    1WF      WF66729   0.292   8.656   8.214 -0.1256 -0.3817 -0.0310
    1WF      WF66730  25.344   3.378   8.015 -0.0946  0.0268 -0.2647
    1WF      WF66731   2.203  21.114   6.649 -0.1381  0.1006 -0.0988
    1WF      WF66732  28.891   0.818   2.117 -0.1792 -0.2533  0.0328
    1WF      WF66733  16.394  29.576   0.998  0.1163  0.0918  0.0457
    1WF      WF66734  22.632  22.167   6.736 -0.0642  0.6414 -0.1215
    1WF      WF66735  20.941  21.725   1.287 -0.0679 -0.0899  0.0016
    1WF      WF66736   1.623   0.715   8.631 -0.1470  0.1646 -0.0467
    1WF      WF66737  18.716  24.870   0.126  0.0595 -0.1438  0.1465
    1WF      WF66738  11.639   8.401   1.574 -0.1395 -0.1421 -0.1161
    1WF      WF66739   1.059   6.246   0.640  0.0854 -0.1223  0.1749
    1WF      WF66740  14.079   9.482   1.647  0.0334 -0.0338  0.0510
    1WF      WF66741  18.308  20.386   8.853 -0.1427  0.3797  0.1418
    1WF      WF66742  28.997  24.317   8.407  0.3227  0.0446 -0.0373
    1WF      WF66743   1.335   7.628   8.089  0.1701 -0.0713 -0.4227
    1WF      WF66744  27.197   5.744   0.251  0.2425 -0.1394  0.0375
    1WF      WF66745  12.561  22.634   0.469 -0.3037  0.0170 -0.2947
    1WF      WF66746  27.486  16.397   7.784  0.0320 -0.0074 -0.1688
    1WF      WF66747   2.319   8.134   6.978  0.0867 -0.0093 -0.1090
    1WF      WF66748  14.129  11.088   1.458  0.2753 -0.1119  0.0563
    1WF      WF66749   1.906   8.319   5.964  0.0787  0.2392  0.2089
    1WF      WF66750  12.952  28.824   1.580  0.0982  0.2797 -0.1883
    1WF      WF66751   2.027  25.255   7.969 -0.0100 -0.3547  0.1874
    1WF      WF66752  14.908  11.950   0.634 -0.1638 -0.1062 -0.2078
    1WF      WF66753  11.767  20.253   7.901  0.1866 -0.0484 -0.1586
    1WF      WF66754  16.654   1.458   3.381  0.0365 -0.0147 -0.0911
    1WF      WF66755   4.308  23.631   8.677 -0.1526 -0.0332  0.1075
    1WF      WF66756  28.723  28.913   6.613 -0.0821  0.0005 -0.2272
    1WF      WF66757  12.555  22.359   7.503  0.1103 -0.1619  0.2305
    1WF      WF66758  17.125  27.815   0.170  0.3548  0.1402  0.1669
    1WF      WF66759   4.667   6.967   2.095  0.3229 -0.0424  0.1001
    1WF      WF66760  20.868  20.339   8.917  0.1016  0.1748  0.0241
    1WF      WF66761  27.271  19.154   8.709 -0.1675 -0.1872 -0.1272
    1WF      WF66762   2.322  13.309   7.872  0.1989  0.1408 -0.1542
    1WF      WF66763  17.037  25.615   1.432 -0.0924  0.0503 -0.1789
    1WF      WF66764  22.843  14.289   6.707 -0.1205  0.3859 -0.1399
    1WF      WF66765  15.263  22.570   0.107 -0.0350 -0.0482  0.2540
    1WF      WF66766  15.713  22.191   7.684  0.0442  0.0138 -0.0102
    1WF      WF66767  14.819  24.295   1.530 -0.3121 -0.1812  0.0702
    1WF      WF66768   9.205  10.398   7.259  0.1379  0.0215  0.0383
    1WF      WF66769  10.788   7.165   0.343  0.0841  0.0314 -0.0127
    1WF      WF66770  17.377   0.872   7.431 -0.0362  0.0107 -0.0554
    1WF      WF66771  18.691   0.743   2.711  0.1222  0.2143  0.2001
    1WF      WF66772  17.355  16.726   1.015 -0.0705  0.0308 -0.0688
    1WF      WF66773  13.962   5.366   1.692  0.2690 -0.1212  0.0153
    1WF      WF66774   1.684  24.818   7.685 -0.0975 -0.1135  0.0035
    1WF      WF66775   9.294  19.652   1.717 -0.1771 -0.5084 -0.1582
    1WF      WF66776  12.467  10.803   8.494 -0.0706  0.0149  0.1388
    1WF      WF66777  27.822  15.234   8.961 -0.1349  0.1787 -0.0822
    1WF      WF66778  17.987  12.973   0.630 -0.0878  0.2344 -0.2186
    1WF      WF66779  20.701  22.067   0.635 -0.0000 -0.1834 -0.0166
    1WF      WF66780  28.927   7.552   1.105 -0.1130 -0.0143 -0.2291
    1WF      WF66781   4.016  24.043   8.737 -0.3220 -0.0285 -0.2538
    1WF      WF66782  15.080  29.103   1.123 -0.0384 -0.0232 -0.1643
    1WF      WF66783   8.863   3.287   2.692 -0.1364 -0.2299 -0.0642
    1WF      WF66784  22.062   3.882   2.031 -0.1918 -0.2271  0.2700
    1WF      WF66785   1.801  25.853   1.168 -0.1840 -0.2872  0.0651
    1WF      WF66786  22.441  24.324   9.086  0.1483  0.0034  0.0378
    1WF      WF66787  28.588   7.847   0.945  0.0100  0.1746  0.1646
    1WF      WF66788   0.116   7.599   1.312  0.1214 -0.4655  0.0713
    1WF      WF66789  25.873  27.138   1.109 -0.2289  0.0462  0.0303
    1WF      WF66790  23.820   0.096   2.333  0.5064  0.0682 -0.1138
    1WF      WF66791  18.780  19.484   8.817  0.2812  0.0422  0.2025
    1WF      WF66792  19.429  23.137   8.202 -0.2062 -0.1641 -0.0223
    1WF      WF66793   1.639  16.467   8.663 -0.1344 -0.0241 -0.0787
    1WF      WF66794  25.168  29.192   1.864  0.2496  0.3273  0.0695
    1WF      WF66795  13.217  19.724   8.376  0.1871 -0.1028 -0.0090
    1WF      WF66796  11.440   8.975   0.921  0.0741  0.0290 -0.1492
    1WF      WF66797  26.376   0.228   7.689  0.1052 -0.0275 -0.1180
    1WF      WF66798  14.199   7.133   8.533 -0.0380  0.1126 -0.0862
    1WF      WF66799  17.685  26.239   3.070 -0.0333  0.1469 -0.0266
    1WF      WF66800   3.520   1.939   0.804 -0.1249  0.2766  0.1602
    1WF      WF66801   4.269  15.703   0.781 -0.1179 -0.2128  0.2833
    1WF      WF66802   3.237  13.125   8.597  0.1045 -0.1849  0.0266
    1WF      WF66803  13.706  19.795   0.800  0.2652  0.4087 -0.3554
    1WF      WF66804   4.855   7.945   8.418  0.2368  0.0445 -0.0043
    1WF      WF66805  11.736  17.650   0.019 -0.2633 -0.0557 -0.1640
    1WF      WF66806   2.405  13.001   8.211 -0.0133  0.3814  0.0942
    1WF      WF66807  25.736  21.510   0.745 -0.2341 -0.0018  0.1380
    1WF      WF66808  25.980  27.746   7.806  0.1148 -0.0439  0.2166
    1WF      WF66809  21.986   7.163   0.695 -0.2767  0.2248 -0.0523
    1WF      WF66810   2.721   7.771   0.368 -0.1727  0.1540 -0.1154
    1WF      WF66811  20.402  19.816   0.992  0.0671  0.2615 -0.0502
    1WF      WF66812  16.841  22.490   2.677 -0.0361  0.0153 -0.0614
    1WF      WF66813  23.406   9.030   8.606 -0.0458  0.2018 -0.2426
    1WF      WF66814   5.563   9.418   3.395 -0.0766  0.0547  0.2571
    1WF      WF66815  23.963  19.384   8.501  0.0186 -0.3002 -0.2787
    1WF      WF66816  13.878  13.337   8.035  0.0383  0.0119 -0.0723
    1WF      WF66817  29.312  12.825   6.771 -0.3886 -0.1530  0.0125
    1WF      WF66818  15.593   6.805   7.925 -0.1137  0.2639 -0.0617
    1WF      WF66819   8.266  23.946   0.611  0.3049 -0.1181 -0.1847
    1WF      WF66820  15.897   8.072   8.948 -0.1357  0.0954 -0.0825
    1WF      WF66821  27.809   9.831   1.409 -0.3409  0.1446 -0.0155
    1WF      WF66822   6.743   6.013   0.473  0.0921 -0.0077  0.4452
    1WF      WF66823  10.567  24.823   0.281  0.4185 -0.0117 -0.1420
    1WF      WF66824  17.411  13.075   9.196  0.0717 -0.0921 -0.0799
    1WF      WF66825  14.749   1.559   1.089  0.0309 -0.0037 -0.3240
    1WF      WF66826   3.882   5.819   9.366  0.0289  0.1209 -0.1420
    1WF      WF66827  23.029  22.844   0.119 -0.1227 -0.0446 -0.1564
    1WF      WF66828  27.090  19.315   7.553  0.0717  0.0941 -0.0005
    1WF      WF66829  20.787  19.491   1.219  0.1221 -0.0038  0.0260
    1WF      WF66830  12.054   3.961   8.323 -0.3793  0.0402 -0.3127
    1WF      WF66831   3.368  10.131   9.038  0.1952  0.2086 -0.1784
    1WF      WF66832   3.486   9.269   7.489  0.0029  0.3014  0.0063
    1WF      WF66833  14.412  24.140   3.104  0.3131  0.4618 -0.0319
    1WF      WF66834   4.237  19.386   9.309 -0.2889 -0.1852 -0.1343
    1WF      WF66835  25.850  26.907   2.039 -0.0195 -0.0292  0.0191
    1WF      WF66836   4.651  19.585   0.003 -0.0529  0.0177 -0.0395
    1WF      WF66837  23.042  28.587   0.328  0.1224 -0.0806  0.1214
    1WF      WF66838   2.898   9.031   8.637  0.0608 -0.1100 -0.3274
    1WF      WF66839   4.079  17.585   0.187 -0.1830  0.0425  0.1983
    1WF      WF66840  27.835  22.733   0.750  0.2158 -0.1172  0.2582
    1WF      WF66841  12.557   0.576   1.699 -0.1950  0.0483  0.2895
    1WF      WF66842   0.653  21.198   8.614 -0.0050  0.0606 -0.1467
    1WF      WF66843  16.230   6.737   1.156 -0.1707  0.0219  0.0347
    1WF      WF66844  23.072  13.114   1.095 -0.1372  0.1338 -0.0713
    1WF      WF66845  23.315  26.542   7.768  0.1527  0.3334 -0.1922
    1WF      WF66846   6.737  23.105   0.105 -0.0583  0.2015 -0.0476
    1WF      WF66847  27.499  29.434   0.782 -0.0017 -0.0286 -0.0668
    1WF      WF66848  13.122  14.433   8.772  0.3775 -0.2283  0.1266
    1WF      WF66849  21.158  22.252   7.441  0.1138  0.0636 -0.1802
    1WF      WF66850  19.562   9.643   0.736 -0.1053 -0.0585  0.3244
    1WF      WF66851  12.970   5.762   2.483 -0.0809 -0.1617 -0.0316
    1WF      WF66852  13.025  22.324   0.374  0.1847  0.2081  0.1430
    1WF      WF66853  14.086  20.634   8.585 -0.1298  0.0475 -0.2434
    1WF      WF66854   5.509  19.401   9.140  0.0098  0.1146  0.3157
    1WF      WF66855  14.658   3.650   1.060 -0.0333  0.0133 -0.0558
    1WF      WF66856   6.168  19.629   8.615  0.2802  0.4756 -0.1566
    1WF      WF66857   0.994   8.247   1.971 -0.1418  0.1494  0.2505
    1WF      WF66858  28.793  12.439   7.482  0.1591 -0.0095 -0.1416
    1WF      WF66859  28.685   6.886   0.338  0.2409 -0.1643  0.0567
    1WF      WF66860  13.906   7.220   0.374 -0.0766 -0.3897  0.0191
    1WF      WF66861  26.230   9.867   7.105  0.0055  0.0867  0.2019
    1WF      WF66862  25.065  14.479   0.697  0.1810  0.1549 -0.0038
    1WF      WF66863   8.725  28.662   1.019  0.3230  0.3782 -0.1317
    1WF      WF66864  29.101  14.121   7.830  0.1415  0.2399  0.1870
    1WF      WF66865   7.002  15.544   8.386  0.1443  0.3703  0.3039
    1WF      WF66866  22.832   6.796   2.111 -0.0876  0.0336  0.0198
    1WF      WF66867  19.664  20.421   7.804  0.0182  0.1428 -0.0652
    1WF      WF66868  12.273  24.023   1.716 -0.1038 -0.0567 -0.0937
    1WF      WF66869  27.263  19.873   1.585 -0.0998  0.0786 -0.1027
    1WF      WF66870   2.267  27.549   1.537  0.1794 -0.1855 -0.0834
    1WF      WF66871   3.277   7.589   1.843  0.0545  0.0696 -0.0262
    1WF      WF66872  22.596   1.260   3.382 -0.2082  0.1298  0.0926
    1WF      WF66873  15.709   6.789   1.071  0.1265  0.1457  0.4825
    1WF      WF66874  19.940  24.817   1.584  0.1357  0.1406 -0.1975
    1WF      WF66875   7.539   6.370   7.943  0.1476 -0.0852 -0.0114
    1WF      WF66876  25.786   3.658   8.114 -0.0538  0.2118  0.1532
    1WF      WF66877   3.584  15.626   6.953 -0.0447 -0.0643  0.1193
    1WF      WF66878  16.317   1.542   9.167 -0.1654 -0.1900  0.1107
    1WF      WF66879  24.016  19.499   9.058 -0.1966 -0.1107 -0.0778
    1WF      WF66880  18.427  18.088   8.195  0.0377 -0.0859 -0.0818
    1WF      WF66881  10.803  17.819   9.268 -0.2237 -0.0321 -0.1502
    1WF      WF66882  23.805  18.818   1.694  0.1001 -0.2093 -0.0922
    1WF      WF66883   4.215   5.972   2.019  0.0848  0.0192  0.0036
    1WF      WF66884   3.906  19.547   8.679  0.0810 -0.0407 -0.1819
    1WF      WF66885   7.412  29.065   7.559  0.2119 -0.1792  0.1002
    1WF      WF66886   7.379  29.469   1.781 -0.0490  0.1372  0.0141
    1WF      WF66887   9.137  22.716   8.402 -0.0014  0.1558  0.0959
    1WF      WF66888   6.261  22.557   7.064 -0.0675  0.1853 -0.0670
    1WF      WF66889  10.388  10.166   8.578  0.1216  0.1831  0.1033
    1WF      WF66890  27.192  12.215   8.197 -0.1054  0.1006 -0.0151
    1WF      WF66891   6.191  13.185   0.133 -0.4067 -0.1201  0.0657
    1WF      WF66892  10.507   6.301   0.390  0.1266 -0.0827  0.0314
    1WF      WF66893  19.237  29.749   3.174 -0.0448  0.1455  0.4818
    1WF      WF66894   5.369   5.157   8.725 -0.1184  0.1953 -0.2475
    1WF      WF66895  12.495  27.378   7.805 -0.0407 -0.1584  0.2330
    1WF      WF66896  18.549  23.482   8.017  0.0931 -0.2474 -0.0164
    1WF      WF66897   9.580  11.359   8.415 -0.0489  0.0170 -0.0243
    1WF      WF66898  16.257   2.061   6.162  0.1990 -0.3534 -0.0001
    1WF      WF66899   2.334  16.030   0.071 -0.2261 -0.3858  0.1555
    1WF      WF66900  12.559   2.604   0.772 -0.2181  0.2914 -0.2678
    1WF      WF66901  13.812   9.004   7.709  0.1141  0.1137  0.2597
    1WF      WF66902   3.579   8.199   0.135  0.1472 -0.0099  0.4492
    1WF      WF66903  18.758   6.511   9.017  0.0080 -0.0914  0.0792
    1WF      WF66904  19.677   5.446   1.560 -0.3222 -0.1788  0.0454
    1WF      WF66905   3.714  18.701   2.559  0.3113 -0.2576 -0.0949
    1WF      WF66906  16.687  10.873   8.580  0.0498 -0.0991  0.1195
    1WF      WF66907   6.345  24.917   7.623 -0.0774  0.0416 -0.1867
    1WF      WF66908  12.879   3.213   1.425  0.4956 -0.0748  0.2418
    1WF      WF66909  14.026  29.385   9.334  0.3459  0.1820  0.0063
    1WF      WF66910  21.122   6.463   7.714  0.0459 -0.1490  0.2413
    1WF      WF66911  10.523   4.206   8.328  0.1591 -0.2614  0.0760
    1WF      WF66912   2.565   7.151   0.345  0.0694 -0.0808 -0.0037
    1WF      WF66913  23.312  25.643   7.890 -0.1203 -0.0121 -0.3166
    1WF      WF66914   4.086  29.680   7.350 -0.1722  0.0573 -0.0345
    1WF      WF66915  27.709  19.881   1.882 -0.2725  0.0636 -0.1979
    1WF      WF66916  22.864   7.562   0.854 -0.0080 -0.1357 -0.1267
    1WF      WF66917  10.056  23.490   8.101 -0.1529 -0.1274  0.0248
    1WF      WF66918  13.653  29.025   9.314 -0.1277 -0.3596 -0.0261
    1WF      WF66919  20.641  22.944   1.944 -0.0698 -0.2790  0.1638
    1WF      WF66920   6.795  14.574   8.123  0.0086 -0.0071 -0.0766
    1WF      WF66921  10.040  24.199   0.783 -0.1942  0.0756 -0.0608
    1WF      WF66922  26.286  17.776   1.439 -0.0386  0.0431  0.1414
    1WF      WF66923  16.464  23.358   1.570  0.1049 -0.0132  0.0759
    1WF      WF66924   8.916  13.562   7.484 -0.0404 -0.1708  0.1788
    1WF      WF66925   2.357  26.235   6.993 -0.2721  0.0606  0.0385
    1WF      WF66926  28.219  29.442   8.221  0.0108  0.1324 -0.1636
    1WF      WF66927  10.529  10.212   0.093 -0.1392 -0.0767  0.0516
    1WF      WF66928  15.455  16.040   2.260  0.1987  0.2310  0.3854
    1WF      WF66929  27.417  29.392   0.330 -0.0219 -0.0608 -0.1377
    1WF      WF66930  15.577  10.768   1.187 -0.3433  0.0001  0.1317
    1WF      WF66931  23.620  16.617   0.182 -0.0231 -0.0690  0.2738
    1WF      WF66932  23.183   5.901   6.952 -0.0643  0.2725 -0.1032
    1WF      WF66933  26.420  22.264   1.594 -0.1991  0.1381 -0.0494
    1WF      WF66934  23.711  18.525   1.368  0.2368  0.1635 -0.0448
    1WF      WF66935  11.440  28.581   0.474  0.1811 -0.1429  0.0357
    1WF      WF66936   6.208   6.913   9.376  0.1738 -0.2412 -0.0229
    1WF      WF66937   1.772  18.982   8.818  0.1999 -0.2623 -0.2112
    1WF      WF66938   1.891  18.730   8.009 -0.3088  0.0119  0.2258
    1WF      WF66939  12.096   0.345   8.571 -0.1530 -0.0690 -0.0759
    1WF      WF66940   4.497   4.467   0.538  0.0529  0.1811 -0.0707
    1WF      WF66941   0.496  12.804   8.828  0.1422 -0.1216  0.1912
    1WF      WF66942  25.610  25.128   0.553 -0.2475 -0.0478 -0.0797
    1WF      WF66943   8.587   0.402   7.201 -0.0188  0.1828  0.1254
    1WF      WF66944   9.509  12.628   0.604  0.1387  0.3739  0.1980
    1WF      WF66945  10.033  29.397   2.066 -0.2266  0.0113 -0.0916
    1WF      WF66946  14.131  18.590   0.388 -0.0201 -0.1564 -0.1770
    1WF      WF66947  26.421  22.667   7.671 -0.1277  0.0799  0.2357
    1WF      WF66948   9.423  19.208   2.530 -0.1415  0.1212  0.0982
    1WF      WF66949  23.371  28.705   8.665  0.0520  0.4062  0.0425
    1WF      WF66950  20.744   4.580   0.699  0.1459 -0.2636  0.1104
    1WF      WF66951   3.139  12.251   7.404 -0.2555 -0.0511  0.1010
    1WF      WF66952  29.326  20.211   1.481  0.0657 -0.0069  0.1595
    1WF      WF66953  26.647  19.854   8.872 -0.1227 -0.1640  0.0781
    1WF      WF66954   7.224  22.753   7.322 -0.0123 -0.0603  0.0264
    1WF      WF66955  12.859   0.024   1.849  0.1121  0.1209  0.0349
    1WF      WF66956  23.442  25.341   7.536  0.2212  0.1922 -0.3832
    1WF      WF66957  19.562   8.474   7.658 -0.0527  0.1037 -0.3440
    1WF      WF66958  10.540   1.867   1.980  0.1901  0.1296  0.0918
    1WF      WF66959  19.572  15.856   7.627  0.1299 -0.0961 -0.0160
    1WF      WF66960  17.983   5.581   3.100  0.2523  0.4322  0.0413
    1WF      WF66961   3.748  25.631   8.940 -0.1590  0.1351 -0.0444
    1WF      WF66962  11.581  20.605   7.576 -0.2103 -0.4853  0.1885
    1WF      WF66963   4.460   1.248   3.088  0.1255 -0.1068  0.1085
    1WF      WF66964  16.399  12.425   8.261  0.0596  0.5163 -0.0115
    1WF      WF66965  20.852  15.419   9.190 -0.1587 -0.1278  0.0751
    1WF      WF66966   1.625  18.632   8.451  0.1291  0.1479  0.0665
    1WF      WF66967  15.513  29.710   8.692 -0.2313  0.3498 -0.2758
    1WF      WF66968  20.771   6.657   6.276 -0.1123 -0.0740 -0.4581
    1WF      WF66969  23.673  10.243   7.342 -0.2735  0.0324 -0.0735
    1WF      WF66970   9.816   3.042   2.922  0.0400 -0.2412 -0.1779
    1WF      WF66971  11.071  14.933   0.507  0.2402 -0.0567 -0.1489
    1WF      WF66972   3.389   8.093   1.784 -0.1155  0.0328  0.2145
    1WF      WF66973   7.820   0.557   9.065  0.0946  0.2107 -0.3140
    1WF      WF66974  21.691  13.107   9.423 -0.0008  0.0697  0.0841
    1WF      WF66975  20.006  20.408   7.490  0.2032  0.0444  0.0399
    1WF      WF66976   0.825  13.475   1.366  0.0150  0.1344  0.1207
    1WF      WF66977  26.275  14.517   0.073  0.0510  0.0947 -0.0285
    1WF      WF66978  28.970  15.231   8.380  0.2145  0.2018  0.1435
    1WF      WF66979  23.012  26.082   0.397 -0.2448  0.2514  0.1214
    1WF      WF66980  26.411   1.233   8.224 -0.1037 -0.0214 -0.0549
    1WF      WF66981  29.098   2.055   1.176  0.1355 -0.1306  0.0587
    1WF      WF66982  25.555  15.023   9.447 -0.2033 -0.4308 -0.1088
    1WF      WF66983  23.108   1.931   7.911  0.1227 -0.3072  0.0697
    1WF      WF66984  18.937   9.146   9.222  0.0734 -0.2686  0.3380
    1WF      WF66985  29.246   1.005   0.979 -0.1097  0.0563  0.0565
    1WF      WF66986  13.776  25.326   1.619  0.0196  0.0437  0.0830
    1WF      WF66987  20.117  28.485   8.008  0.0685  0.0950 -0.0196
    1WF      WF66988  19.512  25.731   9.450 -0.0019  0.2336 -0.2115
    1WF      WF66989   1.167   3.690   0.141  0.0171  0.1654  0.3772
    1WF      WF66990   2.708   2.832   7.837 -0.0901 -0.4782  0.0510
    1WF      WF66991   5.968  13.028   9.175  0.0947 -0.0781 -0.0058
    1WF      WF66992   7.667   4.089   1.297 -0.0570 -0.0894 -0.2022
    1WF      WF66993  10.366  25.066   0.678 -0.1565  0.3706  0.0874
    1WF      WF66994   4.366  23.106   8.592 -0.2552  0.2620  0.1471
    1WF      WF66995   3.224  12.192   6.890  0.2237 -0.0924  0.1193
    1WF      WF66996  15.654   9.926   8.074 -0.0628  0.0264 -0.0011
    1WF      WF66997  23.691  19.627   9.440 -0.3037  0.1732 -0.0691
    1WF      WF66998  24.779  18.161   8.411 -0.1053 -0.0108  0.2425
    1WF      WF66999   2.869  16.782   8.761 -0.2756  0.2987  0.1155
    1WF      WF67000  19.552   0.460   8.246 -0.2801 -0.3048 -0.0871
    1WF      WF67001   7.165  12.961   7.789  0.2888  0.1751  0.3087
    1WF      WF67002   5.452   5.122   0.419  0.1288 -0.1511  0.2922
    1WF      WF67003   2.207  22.709   2.148 -0.1356 -0.1330 -0.0947
    1WF      WF67004  26.427  14.174   9.213  0.1203  0.0560 -0.0262
    1WF      WF67005  27.901  29.145   0.754 -0.0573  0.0266 -0.1019
    1WF      WF67006   3.293  12.549   8.646  0.1879  0.1294  0.0875
    1WF      WF67007  26.147  20.086   7.778 -0.0418  0.1223 -0.2932
    1WF      WF67008   6.623  12.225   7.624 -0.0833  0.2073  0.2504
    1WF      WF67009  18.482  22.011   1.052 -0.1292 -0.1248 -0.0341
    1WF      WF67010  24.186  20.604   8.037  0.0513 -0.3655 -0.1779
    1WF      WF67011   2.465   2.431   8.845  0.0186  0.0600 -0.3795
    1WF      WF67012  14.442  19.815   8.774 -0.0065 -0.0768 -0.1163
    1WF      WF67013  10.014  16.377   8.396 -0.1023 -0.3376  0.1104
    1WF      WF67014  12.054  10.150   9.095 -0.0729  0.0514 -0.0925
    1WF      WF67015   5.153  24.078   9.408  0.1523  0.0524  0.0598
    1WF      WF67016  17.257   6.717   7.338  0.2519 -0.0179  0.0131
    1WF      WF67017   9.352  15.090   8.480  0.1883  0.1166  0.0961
    1WF      WF67018  28.044   5.709   8.630 -0.0115  0.0789  0.0946
    1WF      WF67019  12.129  28.570   1.987 -0.2931 -0.2076 -0.2162
    1WF      WF67020   7.415   6.674   0.575 -0.2037 -0.1130 -0.0273
    1WF      WF67021   3.663  28.942   7.172 -0.1882  0.0708 -0.4935
    1WF      WF67022  19.231   2.654   0.403  0.1219 -0.0756  0.1004
    1WF      WF67023   3.994   5.618   1.626  0.0953 -0.0580 -0.0547
    1WF      WF67024  20.920   7.333   0.895 -0.0907  0.2392  0.1470
    1WF      WF67025  12.031   0.313   0.097  0.3307  0.4833 -0.1580
    1WF      WF67026   7.512   0.352   8.674  0.2279  0.0707  0.1699
    1WF      WF67027   7.068  22.254   7.476 -0.0534 -0.0413  0.1871
    1WF      WF67028   1.675  11.373   8.112  0.0201 -0.1063  0.3235
    1WF      WF67029   4.119  28.119   7.563  0.1063  0.1990  0.0583
    1WF      WF67030  20.808  26.020   3.166  0.0705  0.2768 -0.1512
    1WF      WF67031  28.355  16.469   7.387  0.0023  0.1005 -0.3449
    1WF      WF67032   9.869   4.510   3.721  0.0122 -0.0721 -0.0881
    1WF      WF67033  24.702  17.203   2.469  0.3591  0.0492  0.0792
    1WF      WF67034  23.777  12.980   0.492  0.1132  0.0356 -0.0561
    1WF      WF67035   2.284  19.959   0.745  0.2770  0.1705  0.0026
    1WF      WF67036   0.708   1.142   8.790 -0.0441 -0.3572 -0.0694
    1WF      WF67037   6.076  15.647   6.472  0.3541  0.0333 -0.0077
    1WF      WF67038  21.621   3.526   1.552 -0.2406  0.1873  0.1497
    1WF      WF67039  16.332  16.695   1.066  0.0048 -0.0662  0.2291
    1WF      WF67040  15.046   7.789   6.992 -0.1818 -0.2870 -0.1267
    1WF      WF67041  22.957   1.808   0.748 -0.1269 -0.3104  0.3567
    1WF      WF67042  28.666  12.628   9.052 -0.0898 -0.1033  0.1223
    1WF      WF67043  19.784   5.837   9.284  0.4174 -0.1175 -0.1052
    1WF      WF67044  13.856  15.903   1.223 -0.1108 -0.0063 -0.1613
    1WF      WF67045  11.641  11.592   8.312 -0.2119 -0.0822 -0.0915
    1WF      WF67046  29.817  17.091   0.661  0.1573 -0.0008 -0.0499
    1WF      WF67047   7.761  11.441   1.512 -0.0050  0.1624  0.2465
    1WF      WF67048   2.306   6.742   0.627  0.2822 -0.1130 -0.1369
    1WF      WF67049   9.792  19.659   1.647 -0.0383 -0.0634  0.2426
    1WF      WF67050   1.470  20.198   6.911  0.2724 -0.0702  0.1743
    1WF      WF67051  13.658  24.112   6.918 -0.1516 -0.0573 -0.1037
    1WF      WF67052  18.988  18.342   9.010  0.0466 -0.0181 -0.2119
    1WF      WF67053   4.855   9.755   7.999 -0.2652  0.1251  0.0335
    1WF      WF67054   2.138  10.232   8.029  0.3982  0.1311 -0.2976
    1WF      WF67055  20.764  19.812   8.876 -0.2951 -0.1090 -0.2200
    1WF      WF67056  18.866  15.198   7.857 -0.3659 -0.0095 -0.1709
    1WF      WF67057  16.131  28.692   8.367 -0.1281 -0.3161  0.0388
    1WF      WF67058   1.257   7.669   0.300 -0.0070  0.0465 -0.1026
    1WF      WF67059  21.083  27.481   1.758  0.1075  0.0993  0.2099
    1WF      WF67060  23.397   0.791   9.337 -0.1493  0.2158  0.0285
    1WF      WF67061  10.613  10.483   0.508 -0.1137  0.4190 -0.0514
    1WF      WF67062  21.875   9.047   8.877 -0.2022  0.2482 -0.1664
    1WF      WF67063  12.948  18.325   1.041 -0.1160 -0.0279  0.0680
    1WF      WF67064   3.134   2.232   0.918  0.2929 -0.0620 -0.0647
    1WF      WF67065   9.151   1.821   2.398  0.2772  0.0916  0.0546
    1WF      WF67066   3.446   0.262   3.101 -0.1202 -0.1371  0.0915
    1WF      WF67067  10.320  15.135   8.191  0.1329 -0.1933 -0.2634
    1WF      WF67068  17.908  16.312   9.056  0.1636  0.1718  0.1633
    1WF      WF67069   1.148  10.233   0.669  0.0388  0.4430  0.1972
    1WF      WF67070   1.620  22.726   7.868  0.1946 -0.0222 -0.0268
    1WF      WF67071   3.895   5.046   8.751 -0.1062 -0.1177 -0.1443
    1WF      WF67072  12.122  18.960   7.823 -0.2059 -0.3820 -0.1547
    1WF      WF67073  15.174  27.769   0.895  0.1955  0.2516  0.2922
    1WF      WF67074  20.476  24.403   1.746 -0.0439  0.1531  0.3276
    1WF      WF67075  10.714  21.548   7.545 -0.1690 -0.1760 -0.1519
    1WF      WF67076  17.012   0.761   7.816  0.2422 -0.1034 -0.1511
    1WF      WF67077  12.997  27.342   0.429  0.1146  0.0885  0.1016
    1WF      WF67078  18.457  26.228   9.418 -0.0032 -0.1106  0.0746
    1WF      WF67079  17.770   4.140   5.957  0.0263 -0.0204  0.0618
    1WF      WF67080  11.746  18.859   7.503  0.0164 -0.1492 -0.0055
    1WF      WF67081  25.114   6.435   8.807  0.4316 -0.2118  0.3772
    1WF      WF67082   9.339  26.941   1.398 -0.3347 -0.0648 -0.3358
    1WF      WF67083   7.220  15.851   0.213  0.0933  0.2205  0.0292
    1WF      WF67084  12.476   3.786   9.157  0.2545 -0.2600  0.2941
    1WF      WF67085  28.334  26.212   0.586  0.1275 -0.3044 -0.2732
    1WF      WF67086   7.527  13.614   0.193 -0.0002  0.0858 -0.1073
    1WF      WF67087   9.515  20.587   2.499 -0.0227 -0.2215  0.3104
    1WF      WF67088   9.179  28.818   1.137  0.3585  0.0603  0.2332
    1WF      WF67089  18.836  16.994   0.858 -0.2527  0.0771  0.0588
    1WF      WF67090  16.802  29.346   1.357 -0.0803  0.1688 -0.4381
    1WF      WF67091  10.417  23.201   0.410  0.2310  0.0603  0.2084
    1WF      WF67092  15.164   1.620   0.847 -0.4795 -0.2407 -0.2007
    1WF      WF67093   2.159  18.851   7.623 -0.0223 -0.1496 -0.0060
    1WF      WF67094  18.170   3.196   7.123 -0.1009  0.3436 -0.2918
    1WF      WF67095  18.060  22.941   0.281 -0.0885  0.0815 -0.2378
    1WF      WF67096  22.704  17.832   0.733 -0.0342 -0.2459 -0.2340
    1WF      WF67097  21.171   1.611   8.271 -0.1818 -0.1276  0.1567
    1WF      WF67098  29.390  17.809   8.747 -0.1120  0.2286  0.2624
    1WF      WF67099  25.138  13.634   7.880 -0.0449  0.0286 -0.0557
    1WF      WF67100   7.616  13.112   0.336 -0.1100  0.0068  0.2199
    1WF      WF67101  23.524  26.076   0.596  0.0384 -0.0420 -0.1644
    1WF      WF67102  23.508   1.786   8.670  0.1281 -0.1196  0.0612
    1WF      WF67103  25.220  26.853   3.232  0.1005 -0.2023  0.2022
    1WF      WF67104  16.138   1.774   0.944 -0.3696 -0.2383 -0.2753
    1WF      WF67105  17.480   1.333   8.332  0.3322 -0.2681  0.1445
    1WF      WF67106  11.637   0.531   8.648  0.0922  0.1612 -0.0397
    1WF      WF67107   5.329   5.679   8.653  0.0758 -0.0590 -0.3090
    1WF      WF67108  20.780   4.857   1.300 -0.3340 -0.1363 -0.2096
    1WF      WF67109   8.709   1.549   2.320  0.1413  0.0492 -0.0586
    1WF      WF67110  13.907  20.212   8.158  0.2396 -0.2848 -0.1434
    1WF      WF67111   4.815  15.751   1.444 -0.2192  0.0858 -0.1437
    1WF      WF67112  16.191   8.475   7.865 -0.0495 -0.0871  0.0357
    1WF      WF67113  25.891   1.031   8.081 -0.0579  0.0839  0.1001
    1WF      WF67114   4.258  19.167   8.814 -0.0039  0.0641 -0.1263
    1WF      WF67115   3.816  12.524   0.394  0.2353  0.2507  0.2323
    1WF      WF67116   3.052   4.538   0.085  0.0671  0.1022 -0.2288
    1WF      WF67117  29.280  17.576   1.374  0.1964  0.2980 -0.3361
    1WF      WF67118  18.090  20.709   1.502  0.2582  0.0756 -0.2316
    1WF      WF67119  22.805  23.408   8.298 -0.0298  0.1888  0.0485
    1WF      WF67120  10.677  22.069   6.088  0.1761 -0.0424  0.1457
    1WF      WF67121   1.734  20.038   2.571  0.1840  0.4151 -0.0857
    1WF      WF67122   0.844  14.162   9.420  0.0616 -0.0764 -0.4541
    1WF      WF67123   9.439  10.242   1.704  0.3733 -0.0174 -0.0666
    1WF      WF67124  22.099  13.915   6.553 -0.0478 -0.0543 -0.1429
    1WF      WF67125  18.560   8.209   2.442  0.0414 -0.0581 -0.0126
    1WF      WF67126  27.395  25.928   1.838 -0.1246 -0.2701 -0.1036
    1WF      WF67127   0.421   0.691   0.765 -0.0600  0.1011 -0.3546
    1WF      WF67128   0.307   6.739   7.988  0.3153  0.0014 -0.1947
    1WF      WF67129  18.773   6.308   0.035  0.1723  0.0087 -0.3752
    1WF      WF67130   6.901  24.847   1.055  0.2408  0.0942  0.0046
    1WF      WF67131  15.786  19.738   1.543 -0.0361  0.0863  0.0651
    1WF      WF67132   7.845  24.166   1.861  0.2121  0.3322 -0.0676
    1WF      WF67133   1.162  11.516   7.910 -0.0248 -0.1234 -0.1139
    1WF      WF67134  23.284  28.586   0.759 -0.0614 -0.1081 -0.2000
    1WF      WF67135   5.803   5.258   1.812 -0.0560 -0.0147 -0.1586
    1WF      WF67136  15.166   6.928   8.145 -0.0553  0.1329  0.0416
    1WF      WF67137   1.530   2.193   0.521 -0.0917  0.3514 -0.0922
    1WF      WF67138   5.022  24.557   8.256 -0.2341  0.2691  0.2201
    1WF      WF67139  10.413  14.555   6.978 -0.3647 -0.4148 -0.1369
    1WF      WF67140   3.792  17.169   0.279  0.2145  0.2795  0.0903
    1WF      WF67141  19.186  13.268   0.869 -0.0567 -0.3127 -0.0832
    1WF      WF67142  22.931  18.345   8.818 -0.0483  0.2427  0.0966
    1WF      WF67143  27.380  15.753   1.262 -0.1462  0.2557  0.1704
    1WF      WF67144  18.563  11.078   9.324 -0.2568  0.4756 -0.1528
    1WF      WF67145  13.058  26.379   0.716  0.0962 -0.0719 -0.0367
    1WF      WF67146  18.964   0.042   9.178  0.1968  0.1759 -0.0945
    1WF      WF67147   4.771  10.287   8.168  0.0932 -0.0920  0.0292
    1WF      WF67148  25.633   2.627   1.370  0.0269  0.1425 -0.5275
    1WF      WF67149  21.909  27.868   0.760 -0.2880 -0.1352 -0.1633
    1WF      WF67150   6.396   2.489   8.169  0.0221 -0.0114 -0.1548
    1WF      WF67151  15.216  29.653   9.170 -0.1926  0.1643 -0.2888
    1WF      WF67152  23.165   8.740   1.719  0.0547 -0.2584 -0.1791
    1WF      WF67153  24.312   5.219   0.265  0.1805 -0.1066 -0.0776
    1WF      WF67154  16.458  29.102   8.381  0.0826 -0.0755  0.1305
    1WF      WF67155   0.603  18.941   8.876 -0.2108  0.0345  0.1239
    1WF      WF67156   8.552   7.661   1.865  0.1637 -0.1754  0.0679
    1WF      WF67157  16.441  26.204   8.855 -0.1019  0.0408 -0.4208
    1WF      WF67158  12.821   5.089   8.421  0.0186  0.2394  0.1342
    1WF      WF67159  17.315  15.943   8.049 -0.0418  0.2997 -0.1002
    1WF      WF67160   3.443   6.614   7.549  0.1735  0.1725 -0.0883
    1WF      WF67161  27.246  20.821   0.098 -0.0614 -0.1981  0.2904
    1WF      WF67162  24.008   7.979   6.545 -0.1456 -0.3554  0.1159
    1WF      WF67163  12.420  19.523   9.189 -0.0144 -0.0853  0.0206
    1WF      WF67164   6.502  20.554   0.021 -0.0946  0.0184 -0.3163
    1WF      WF67165  19.961  27.951   6.971 -0.4904  0.1817 -0.1532
    1WF      WF67166  17.411  13.970   0.458 -0.2277 -0.2269  0.1159
    1WF      WF67167   1.939  15.780   9.371 -0.1147 -0.0864  0.1706
    1WF      WF67168  17.519   0.933   8.037 -0.2394  0.1941  0.1533
    1WF      WF67169  25.562  28.319   1.230  0.1976 -0.0615  0.2507
    1WF      WF67170  12.072  27.537   7.706  0.1394  0.1938 -0.2195
    1WF      WF67171  20.558  14.939   9.338 -0.0582  0.0109  0.2509
    1WF      WF67172  23.186  10.345   7.608  0.4297 -0.4982  0.1871
    1WF      WF67173  19.744   2.837   0.448  0.2175  0.0713 -0.2200
    1WF      WF67174  24.449  16.109   1.925 -0.0604  0.1659  0.3352
    1WF      WF67175   2.200  29.293   6.337  0.2818  0.0530  0.0169
    1WF      WF67176  20.118  22.777   8.708  0.2912 -0.1036 -0.2322
    1WF      WF67177   6.834  13.681   6.275 -0.2085 -0.0265 -0.3270
    1WF      WF67178  14.613  18.596   0.267 -0.2530  0.3980 -0.0164
    1WF      WF67179  16.614   0.071   3.486  0.2964 -0.1802 -0.2105
    1WF      WF67180  20.180   7.388   8.594  0.1548 -0.0034  0.1246
    1WF      WF67181  25.053  23.466   0.851 -0.2413  0.0949 -0.1514
    1WF      WF67182  28.391  14.146   0.693 -0.0797 -0.0559  0.2727
    1WF      WF67183  17.235  28.160   7.966  0.3535 -0.0871  0.0483
    1WF      WF67184  15.321  28.784   8.463 -0.2583  0.0189  0.0563
    1WF      WF67185  11.519   6.752   0.037 -0.0278  0.0793  0.2186
    1WF      WF67186  14.611   5.024   8.813  0.1564 -0.0976  0.1786
    1WF      WF67187  28.354  16.295   6.052  0.1291 -0.1192 -0.0185
    1WF      WF67188   8.479  29.225   1.418  0.1784 -0.2228 -0.0140
    1WF      WF67189   0.384  27.230   8.503 -0.0201 -0.0772  0.0029
    1WF      WF67190  26.855  14.945   0.704 -0.0359 -0.0399  0.3505
    1WF      WF67191  20.882   4.402   1.146  0.2999  0.1722 -0.1341
    1WF      WF67192  17.463   9.979   0.616  0.1702 -0.0275  0.0934
    1WF      WF67193   7.700   3.224   1.643 -0.1163  0.2215 -0.1682
    1WF      WF67194   9.877  12.855   1.141  0.1195 -0.0402  0.1966
    1WF      WF67195  28.624  28.051   8.320 -0.0912  0.3848  0.1138
    1WF      WF67196  28.168  19.850   6.307 -0.0926  0.1111  0.0071
    1WF      WF67197   2.733  28.786   8.784  0.1194 -0.1887  0.2336
    1WF      WF67198  22.475   8.830   0.882 -0.0408 -0.0347  0.0973
    1WF      WF67199  17.111  21.232   8.347 -0.0852 -0.0467  0.0405
    1WF      WF67200   4.212  10.094   1.779  0.3331  0.1793 -0.0709
    1WF      WF67201   8.541   4.949   8.217  0.0063 -0.3724  0.0738
    1WF      WF67202  28.533  19.402   9.132  0.0350 -0.0645  0.0143
    1WF      WF67203  20.222  23.158   0.359 -0.1574 -0.1843  0.0827
    1WF      WF67204   5.805   5.362   8.880  0.1049 -0.1821 -0.1854
    1WF      WF67205  12.822  26.687   8.499  0.0594 -0.3778 -0.1709
    1WF      WF67206  25.173  19.944   8.009 -0.0764  0.0029  0.0042
    1WF      WF67207   1.158   2.313   2.840  0.0433  0.0716 -0.0577
    1WF      WF67208   8.117  13.251   0.459  0.1826  0.0058  0.3357
    1WF      WF67209   8.613  16.279   0.529 -0.1628 -0.1344  0.0278
    1WF      WF67210  14.649   7.095   8.773 -0.0093  0.2818 -0.2982
    1WF      WF67211   3.184  18.838   8.377 -0.2325  0.0954 -0.3676
    1WF      WF67212  24.607   7.920   8.650  0.0299  0.2858 -0.2735
    1WF      WF67213  23.914  23.086   0.466  0.0622 -0.1926 -0.1996
    1WF      WF67214   3.346  18.714   2.206  0.0635 -0.3046 -0.0119
    1WF      WF67215  24.339  12.731   8.928  0.1481  0.0810  0.0562
    1WF      WF67216  23.312   3.809   8.556 -0.1513  0.2075  0.2486
    1WF      WF67217   6.497  21.649   8.490  0.0228 -0.3226 -0.0343
    1WF      WF67218   7.059  17.576   9.350  0.0697 -0.2282 -0.0901
    1WF      WF67219  18.237  20.866   8.962 -0.3027 -0.0141  0.0311
    1WF      WF67220  23.263  24.937   7.309 -0.1746 -0.2975 -0.1448
    1WF      WF67221   8.565   1.356   1.309  0.1332 -0.0563 -0.2853
    1WF      WF67222  25.861  23.967   7.147 -0.6286  0.1555 -0.0088
    1WF      WF67223   4.265  29.190   1.851  0.1833  0.2073  0.0702
    1WF      WF67224  19.654   8.137   0.621  0.0307  0.0346 -0.2164
    1WF      WF67225   1.573  22.382   8.661 -0.1092  0.0620 -0.1761
    1WF      WF67226  11.767  14.888   8.186  0.0974  0.0843  0.1259
    1WF      WF67227  13.618  19.661   0.213  0.0253  0.1571 -0.1170
    1WF      WF67228   5.394   4.699   8.587  0.2999 -0.1618  0.1098
    1WF      WF67229   7.859  22.386   8.467 -0.3095 -0.0591 -0.3811
    1WF      WF67230   5.945  11.934   6.584  0.3040 -0.1039  0.0264
    1WF      WF67231  15.524  14.475   8.427 -0.0009  0.1572 -0.1795
    1WF      WF67232   5.440   4.197   8.386  0.1811 -0.2515 -0.0601
    1WF      WF67233  20.935   6.039   7.548  0.0256 -0.1000 -0.0518
    1WF      WF67234  13.805   5.749   1.373 -0.2912 -0.0876  0.2899
    1WF      WF67235  24.130  26.818   1.129  0.1610  0.2015 -0.0646
    1WF      WF67236  21.505  26.982   9.032  0.1187  0.0542  0.2683
    1WF      WF67237   2.486  14.740   8.992  0.0312  0.1484 -0.1720
    1WF      WF67238   8.808  14.224   0.819 -0.3884 -0.1380  0.2873
    1WF      WF67239  16.895  26.570   2.365 -0.2597 -0.1617 -0.1368
    1WF      WF67240   0.436   4.530   8.384  0.0173  0.0930  0.1053
    1WF      WF67241  23.993  28.954   3.137  0.0685  0.0642  0.0006
    1WF      WF67242   1.751  15.127   0.841 -0.1720 -0.2226 -0.0629
    1WF      WF67243   4.480  22.028   8.540 -0.0485  0.0441  0.1260
    1WF      WF67244   4.290  24.023   7.802  0.2979  0.1278  0.0623
    1WF      WF67245   9.419  10.591   2.086 -0.1882  0.1368 -0.0880
    1WF      WF67246   5.674   6.025   8.822  0.0289  0.0830 -0.2036
    1WF      WF67247   6.202  12.559   7.782  0.2914 -0.1134  0.1145
    1WF      WF67248  21.377   9.582   7.444 -0.0850 -0.1648  0.1460
    1WF      WF67249  13.677   8.528   7.520  0.1312 -0.1487 -0.3499
    1WF      WF67250   7.232  28.247   1.424 -0.0040 -0.1002  0.0911
    1WF      WF67251  21.943  20.197   1.489  0.0526 -0.0902  0.1222
    1WF      WF67252   1.340  26.311   0.437 -0.0602  0.1969 -0.2401
    1WF      WF67253  23.118   0.513   0.324  0.0513  0.0716 -0.1035
    1WF      WF67254  22.051  18.794   8.798 -0.2554 -0.2456  0.2359
    1WF      WF67255  17.670  15.837   8.928 -0.0257 -0.0279  0.1682
    1WF      WF67256   9.565  13.420   1.231  0.0133  0.3013 -0.0925
    1WF      WF67257  13.828   9.300   1.286  0.1600 -0.4969  0.0954
    1WF      WF67258  28.766  11.984   2.208  0.1914  0.0371 -0.1023
    1WF      WF67259  25.191   5.691   0.246 -0.0858 -0.3813 -0.0307
    1WF      WF67260  21.945  28.383   0.518  0.0768  0.0869 -0.2832
    1WF      WF67261   1.759  29.032   9.218  0.1457 -0.0116  0.2247
    1WF      WF67262   6.252  22.509   8.550  0.0703  0.1901 -0.2747
    1WF      WF67263  22.364   9.893   9.040  0.3918  0.2169  0.1242
    1WF      WF67264  11.634  10.219   6.573  0.1233 -0.2380 -0.0259
    1WF      WF67265   9.792  26.608   3.528  0.1057  0.0339 -0.3885
    1WF      WF67266   1.663  11.263   9.170 -0.1607 -0.0334  0.0174
    1WF      WF67267  19.054  25.617   9.295 -0.0320  0.1405  0.1033
    1WF      WF67268   8.489  27.542   0.615  0.0087 -0.2592  0.1317
    1WF      WF67269  13.857   5.556   0.872 -0.1274 -0.2633 -0.1443
    1WF      WF67270   3.272  29.743   1.923 -0.5818 -0.4131 -0.0744
    1WF      WF67271   7.192  20.663   1.732 -0.2066  0.0123  0.1567
    1WF      WF67272  21.053  25.415   0.894  0.1865  0.2731 -0.2089
    1WF      WF67273  27.231  26.009   8.409 -0.2202  0.1538 -0.0831
    1WF      WF67274   6.716  14.844   9.305 -0.3072  0.0900  0.2242
    1WF      WF67275  11.254  19.397   8.408 -0.0509  0.1262 -0.0929
    1WF      WF67276  27.588  21.259   1.216 -0.1537 -0.0531 -0.1484
    1WF      WF67277  28.036  21.519   1.060  0.0285 -0.0815 -0.0570
    1WF      WF67278   2.149  22.014   0.290  0.2820  0.0384 -0.1168
    1WF      WF67279  18.706  11.792   9.094  0.4604 -0.0237 -0.2255
    1WF      WF67280   1.903  16.403   6.911  0.0608  0.3088  0.1476
    1WF      WF67281  15.718   8.145   0.023  0.1508  0.1210 -0.1618
    1WF      WF67282  16.646   5.390   7.891 -0.1066 -0.0449 -0.3117
    1WF      WF67283  28.835  28.192   0.533 -0.2790  0.0275 -0.0168
    1WF      WF67284   3.390  18.733   7.937 -0.0034  0.0326  0.1918
    1WF      WF67285  18.889  25.864   1.193 -0.0339  0.3960 -0.1788
    1WF      WF67286  21.354  19.667   7.310  0.1089  0.3149  0.1805
    1WF      WF67287  27.736  17.805   8.507  0.0828  0.1074  0.0872
    1WF      WF67288  26.240   8.530   0.756  0.1547  0.0529 -0.1187
    1WF      WF67289   6.617  26.813   1.005  0.0022  0.1235  0.0922
    1WF      WF67290  23.976   4.357   0.534  0.3408  0.0988 -0.2140
    1WF      WF67291   2.359  11.831   3.151 -0.1738 -0.0345 -0.0442
    1WF      WF67292   1.232   5.187   1.224  0.1492  0.0233  0.0708
    1WF      WF67293   2.336  13.681   7.511 -0.1259 -0.2048 -0.3087
    1WF      WF67294  27.482  28.595   9.197  0.2574  0.2142 -0.3988
    1WF      WF67295  17.041   3.270   8.698  0.2214  0.0391 -0.0054
    1WF      WF67296   1.682  17.401   8.870  0.0278  0.2570  0.1989
    1WF      WF67297  13.632   1.329   8.013  0.1752  0.1798  0.0164
    1WF      WF67298   3.350  29.762   0.778 -0.2067 -0.0535 -0.3552
    1WF      WF67299  16.470   2.769   6.705 -0.4559 -0.2479 -0.5058
    1WF      WF67300   1.945  16.224   6.097 -0.0887  0.1316  0.3785
    1WF      WF67301  20.348   6.553   8.764 -0.1140 -0.0899  0.0705
    1WF      WF67302   6.277   0.558   6.857 -0.1092 -0.0636 -0.3282
    1WF      WF67303   6.262  26.505   8.698  0.2481  0.0397 -0.1999
    1WF      WF67304   0.603  24.851   0.786  0.1068 -0.1626 -0.0682
    1WF      WF67305  27.304   7.355   8.997 -0.2954 -0.0495 -0.0659
    1WF      WF67306  19.608  16.337   9.182 -0.3015 -0.0205 -0.1713
    1WF      WF67307   2.933   4.096   1.045  0.2875 -0.0847 -0.3345
    1WF      WF67308  20.427  24.738   8.375 -0.1762 -0.0774 -0.0381
    1WF      WF67309  11.023  14.118   8.626  0.0279 -0.0835 -0.1455
    1WF      WF67310   4.607  21.151   0.621  0.0592 -0.2456 -0.0584
    1WF      WF67311  21.292  12.042   8.996 -0.2609  0.1169  0.3369
    1WF      WF67312  18.865  12.515   2.244 -0.1651  0.0541  0.0565
    1WF      WF67313  28.642   1.707   1.970 -0.1690 -0.0627 -0.1179
    1WF      WF67314  27.037  22.392   0.749  0.0257  0.1816  0.1408
    1WF      WF67315  22.148   9.416   9.010 -0.2070 -0.0131 -0.1618
    1WF      WF67316  25.700  26.029   8.841  0.0168 -0.0931  0.1455
    1WF      WF67317   4.586  26.566   9.397 -0.0079  0.0214 -0.2169
    1WF      WF67318  14.456  12.579   0.391 -0.0259  0.0137  0.1393
    1WF      WF67319  26.292   7.383   0.623  0.2030 -0.1612  0.1535
    1WF      WF67320  10.148   3.153   2.516  0.0414 -0.0309 -0.1455
    1WF      WF67321  25.244  13.149   6.748  0.0092  0.1866 -0.1226
    1WF      WF67322  25.375   4.921   1.369  0.0101  0.0993 -0.0042
    1WF      WF67323  29.422  24.130   7.623 -0.2675  0.0891  0.0764
    1WF      WF67324  10.781  25.092   9.363  0.0230 -0.1037 -0.2207
    1WF      WF67325  16.794   5.842   0.835  0.1414 -0.0596  0.0303
    1WF      WF67326   4.678   9.897   1.902 -0.0091 -0.0938  0.1148
    1WF      WF67327  18.541  13.413   1.156  0.0019  0.1385 -0.1566
    1WF      WF67328   4.320  20.814   6.254  0.2222  0.2843 -0.0563
    1WF      WF67329  28.380  22.987   6.425  0.1087 -0.1465  0.4357
    1WF      WF67330   7.233  29.800   8.812  0.2558  0.1305 -0.0010
    1WF      WF67331   0.493  12.123   7.186 -0.1541 -0.0121 -0.2133
    1WF      WF67332  25.625  24.526   8.123 -0.2222 -0.4184 -0.1493
    1WF      WF67333  16.422  20.616   2.168 -0.1513 -0.4399  0.2516
    1WF      WF67334   0.146  26.697   7.502 -0.0615  0.2868 -0.1711
    1WF      WF67335  16.356  28.660   1.709  0.1134  0.1315  0.3293
    1WF      WF67336   3.152  24.252   7.417 -0.0617  0.1608  0.1740
    1WF      WF67337  15.306   4.127   1.668 -0.3746 -0.2274 -0.1770
    1WF      WF67338   5.468  19.803   6.160  0.2134  0.1302 -0.0045
    1WF      WF67339  25.806   6.749   8.994  0.2225  0.1973  0.1153
    1WF      WF67340  15.508  25.086   8.579 -0.0280 -0.0112 -0.0056
    1WF      WF67341  28.616  19.380   8.577  0.0698  0.1432 -0.0675
    1WF      WF67342  29.383   6.117   8.064 -0.0634  0.1265 -0.1571
    1WF      WF67343  29.063  26.572   8.726  0.0890 -0.1618  0.0817
    1WF      WF67344  10.626  26.228   9.173 -0.1300 -0.0094 -0.2203
    1WF      WF67345   4.302  22.193   8.117  0.0691 -0.0552 -0.2082
    1WF      WF67346   9.326  20.984   8.921 -0.0504 -0.1909  0.4006
    1WF      WF67347   2.366   4.847   1.850  0.0684 -0.1555 -0.1981
    1WF      WF67348  12.302   1.677   0.782 -0.2775  0.0847 -0.3211
    1WF      WF67349  23.131   0.430   0.798  0.2221 -0.2421  0.1509
    1WF      WF67350  20.324   8.083   2.830  0.1425 -0.0442  0.1051
    1WF      WF67351   4.690   4.059   0.827 -0.0164  0.2533  0.1276
    1WF      WF67352  20.577  22.818   0.325  0.1971  0.0810 -0.0085
    1WF      WF67353  23.734  12.192   2.452  0.2271 -0.6108  0.0645
    1WF      WF67354   3.648   4.608   3.591  0.2622  0.0702 -0.0242
    1WF      WF67355  22.592  29.390   7.944  0.0195  0.1472 -0.0384
    1WF      WF67356   3.117  16.239   5.948  0.0927 -0.1677  0.1973
    1WF      WF67357  14.759  11.270   8.283 -0.0070  0.1958 -0.0827
    1WF      WF67358  28.385   9.054   0.502  0.0668  0.0393 -0.0904
    1WF      WF67359   8.653  17.661   9.424 -0.2360 -0.1932  0.1582
    1WF      WF67360  25.389  21.952   0.755 -0.1444 -0.1040  0.0913
    1WF      WF67361  28.035  10.935   7.624  0.2777  0.0717 -0.1256
    1WF      WF67362  25.824  15.901   1.828 -0.1319  0.0805  0.1026
    1WF      WF67363  20.934  25.528   0.426 -0.1690 -0.0672  0.0612
    1WF      WF67364  20.914   8.060   7.557  0.3298  0.1454 -0.0752
    1WF      WF67365   6.324  20.144   8.006 -0.1639  0.0886  0.0520
    1WF      WF67366  11.500  29.226   2.305 -0.0401  0.0166  0.1331
    1WF      WF67367  21.410  27.395   2.136  0.1829  0.0825  0.0114
    1WF      WF67368   6.112   9.462   1.334 -0.1290  0.1659 -0.1819
    1WF      WF67369   7.310  15.764   1.178 -0.0465 -0.0467  0.2661
    1WF      WF67370  17.435  20.607   0.880  0.1585  0.0103  0.0449
    1WF      WF67371   3.975  16.047   0.559  0.1867  0.1329  0.0457
    1WF      WF67372  21.403  29.340   1.376  0.2160  0.1262  0.0216
    1WF      WF67373  27.218  26.615   7.585 -0.0384  0.0767  0.3827
    1WF      WF67374  13.395  16.751   9.261  0.0845  0.2173  0.0327
    1WF      WF67375  25.487  16.602   0.524 -0.1262  0.1599  0.2517
    1WF      WF67376   2.538  13.971   2.773  0.2295 -0.2421 -0.1189
    1WF      WF67377   0.712  18.456   8.924  0.0455 -0.1155  0.1593
    1WF      WF67378   0.624  15.932   7.503  0.2907 -0.0942  0.0771
    1WF      WF67379  22.394  24.715   8.802 -0.2441 -0.0307  0.1213
    1WF      WF67380  15.943   1.452   7.594  0.1636 -0.1382  0.0379
    1WF      WF67381  21.224  29.270   0.953 -0.0867  0.0751  0.2019
    1WF      WF67382  12.418  29.807   0.255  0.0853 -0.0176 -0.0050
    1WF      WF67383   0.719  24.247   0.514 -0.2417 -0.1678 -0.0269
    1WF      WF67384  25.781  29.020   8.632  0.0650 -0.0771  0.0490
    1WF      WF67385   9.731  24.360   8.220  0.1926 -0.3230  0.4345
    1WF      WF67386  20.820   3.069   2.679 -0.0026 -0.1868  0.1154
    1WF      WF67387  22.216  21.254   2.804  0.3207  0.0947  0.1911
    1WF      WF67388  16.978   2.662   2.338 -0.3592  0.0241 -0.7074
    1WF      WF67389  29.387  10.044   0.835 -0.0052  0.0982 -0.0758
    1WF      WF67390   5.453   7.799   1.800 -0.0654  0.1848 -0.3375
    1WF      WF67391  19.019  11.598   2.194  0.0516 -0.1132 -0.1275
    1WF      WF67392   0.447   9.363   7.356  0.0538  0.1223 -0.0084
    1WF      WF67393  20.080  10.037   0.461 -0.1409  0.1285 -0.2550
    1WF      WF67394  16.933   2.769   6.842  0.0227  0.3558 -0.0788
    1WF      WF67395  19.978  13.050   8.866  0.2242  0.1316  0.1283
    1WF      WF67396  19.776  21.827   3.326 -0.3853  0.3303 -0.2586
    1WF      WF67397  13.180  29.500   1.882 -0.1913 -0.0378 -0.2729
    1WF      WF67398   1.074   3.970   6.489  0.4928 -0.0577 -0.2166
    1WF      WF67399  24.389  11.103   0.900 -0.0232 -0.2043  0.1908
    1WF      WF67400  21.588   5.335   1.029 -0.1781 -0.1261 -0.0200
    1WF      WF67401  27.052  12.294   1.433 -0.1496 -0.0126 -0.1233
    1WF      WF67402  19.283  26.166   7.474  0.0087  0.0134 -0.2520
    1WF      WF67403  20.338  18.087   1.688  0.2811 -0.1892 -0.0105
    1WF      WF67404   7.534  11.688   0.608  0.2375  0.0438  0.0289
    1WF      WF67405  23.720  28.640   3.460  0.0045  0.0887 -0.1146
    1WF      WF67406   8.919   7.946   0.207 -0.1866  0.1372  0.0915
    1WF      WF67407  15.083  19.200   8.416  0.1696  0.0388 -0.0137
    1WF      WF67408  11.346  15.108   8.310  0.2084 -0.0161 -0.0643
    1WF      WF67409  10.330   9.959   7.207  0.1606 -0.2211  0.1560
    1WF      WF67410  23.407  12.661   0.193  0.3004  0.1102 -0.0312
    1WF      WF67411  10.351  27.723   1.798  0.1307  0.0536 -0.0052
    1WF      WF67412  27.444   3.011   9.344  0.0654 -0.0489 -0.2664
    1WF      WF67413   0.875  13.194   7.837  0.6774  0.0779 -0.0326
    1WF      WF67414  12.587  17.061   8.560  0.1558  0.2185  0.2197
    1WF      WF67415  12.202   3.226   0.496  0.0206 -0.0190 -0.2901
    1WF      WF67416   0.284   0.895   8.654  0.4248 -0.0731 -0.2682
    1WF      WF67417  17.050   7.746   0.080 -0.0632  0.0442  0.0685
    1WF      WF67418  16.922  25.754   2.783  0.1359  0.1489 -0.2563
    1WF      WF67419  11.718  20.343   8.593 -0.0438 -0.0664 -0.0264
    1WF      WF67420  23.082  22.376   9.382 -0.4298 -0.0840  0.0084
    1WF      WF67421  17.834  24.362   0.969 -0.1754  0.3216  0.2318
    1WF      WF67422  18.346  15.068   0.601  0.2360  0.3294  0.0438
    1WF      WF67423   3.536  19.105   7.616  0.3887 -0.0369  0.2561
    1WF      WF67424  29.663   3.003   9.377 -0.0312 -0.0537  0.1261
    1WF      WF67425   2.709  13.222   8.559 -0.2573  0.0201  0.0269
    1WF      WF67426  25.352  24.940   7.848  0.2633  0.0502  0.2610
    1WF      WF67427   2.119  18.725   8.521  0.0757 -0.2454 -0.0035
    1WF      WF67428  27.448  14.997   5.809  0.0057  0.0568  0.1823
    1WF      WF67429  19.265   6.043   0.817  0.0208 -0.0265  0.2291
    1WF      WF67430   7.377   3.920   1.665  0.0065  0.0292 -0.0285
    1WF      WF67431  15.921  18.829   8.081  0.1547 -0.2663  0.2525
    1WF      WF67432  25.672  11.810   1.358  0.0334 -0.2897  0.0068
    1WF      WF67433  18.753   1.744   8.654 -0.0792  0.0238  0.1687
    1WF      WF67434   1.022   0.237   7.594 -0.1622  0.2236  0.3497
    1WF      WF67435  12.998   7.253   0.037  0.2359 -0.0120  0.0011
    1WF      WF67436  17.117   1.310   8.012  0.3975 -0.0336 -0.2588
    1WF      WF67437   6.478  18.740   1.583  0.0124  0.1999  0.2556
    1WF      WF67438  17.103   9.373   8.223 -0.3881 -0.0247  0.0209
    1WF      WF67439  21.440  26.645   6.865  0.0757  0.2977  0.0948
    1WF      WF67440   9.859  18.819   0.694 -0.0758 -0.2829 -0.0517
    1WF      WF67441  15.087   6.858   8.623  0.0582 -0.0712  0.0512
    1WF      WF67442  18.329  29.098   6.445 -0.2509  0.1927  0.6072
    1WF      WF67443  29.254   3.062   1.170  0.0711 -0.3641  0.1892
    1WF      WF67444  15.388   7.627   0.939 -0.1091  0.2253 -0.1101
    1WF      WF67445  24.932  24.806   0.024 -0.1832  0.1096 -0.0401
    1WF      WF67446   8.983   9.933   1.004 -0.2248 -0.1232 -0.2565
    1WF      WF67447   5.593   1.973   6.754 -0.1042  0.0596  0.1858
    1WF      WF67448  20.077  12.565   8.645  0.2852  0.1408 -0.3846
    1WF      WF67449  25.589  12.159   1.001  0.2227 -0.1720 -0.1370
    1WF      WF67450  13.713   7.338   8.402 -0.1018 -0.0588  0.0129
    1WF      WF67451  23.751  12.942   7.485  0.0145  0.2974 -0.3726
    1WF      WF67452   1.785   8.788   0.338  0.3918 -0.1701 -0.0084
    1WF      WF67453  27.965   2.687   0.055  0.1313  0.2762  0.1990
    1WF      WF67454  11.243  25.879   8.187  0.0297  0.0551  0.2705
    1WF      WF67455  13.679  28.083   2.122  0.2648 -0.0795  0.2201
    1WF      WF67456   9.877  11.226   8.768 -0.0564  0.2576  0.2471
    1WF      WF67457  25.794  19.070   8.447  0.1795 -0.1014 -0.0129
    1WF      WF67458  28.391   3.636   2.023 -0.0638  0.0556 -0.0570
    1WF      WF67459  28.115   2.179   9.355 -0.1498  0.0902  0.0050
    1WF      WF67460  22.181  23.252   8.188  0.0176 -0.2446 -0.0686
    1WF      WF67461  26.550  12.514   2.610  0.3788 -0.1104 -0.0363
    1WF      WF67462   7.898  10.579   8.031  0.2416 -0.2674  0.1181
    1WF      WF67463  12.962  27.826   0.181  0.2710 -0.1638  0.1533
    1WF      WF67464  21.708   3.035   1.565 -0.0494  0.1169 -0.0651
    1WF      WF67465  21.925   0.874   1.720  0.0751  0.0820 -0.0729
    1WF      WF67466  23.212  26.609   8.339 -0.1019  0.1435  0.1814
    1WF      WF67467  27.465  17.388   0.599 -0.0377  0.1235 -0.2211
    1WF      WF67468  10.354  10.683   0.085 -0.1089  0.3302 -0.0316
    1WF      WF67469  17.150  26.331   9.274  0.0269  0.0245  0.1960
    1WF      WF67470   9.196  12.988   0.348 -0.0470  0.0214  0.1683
    1WF      WF67471  19.270  12.215   6.373 -0.1261  0.0109 -0.1342
    1WF      WF67472   4.374  20.638   8.185  0.0438 -0.1667 -0.2742
    1WF      WF67473   7.037   2.942   8.993  0.2289  0.1011  0.0588
    1WF      WF67474  22.935   5.804   0.418  0.0809 -0.3471  0.1658
    1WF      WF67475  24.028   7.858   8.343 -0.3017 -0.0853 -0.3732
    1WF      WF67476  19.392   4.817   1.634  0.1221 -0.1344  0.0688
    1WF      WF67477  29.055   2.633   8.340 -0.2728  0.0964 -0.0467
    1WF      WF67478  24.024  16.711   9.381  0.0243 -0.1673  0.2045
    1WF      WF67479  14.406  22.968   0.590  0.0907  0.3097 -0.1472
    1WF      WF67480   5.766  25.203   2.850  0.2150  0.0238  0.2708
    1WF      WF67481  25.073   8.116   2.356  0.0041 -0.2017  0.0070
    1WF      WF67482  26.732  27.161   2.997 -0.0502 -0.2871 -0.3081
    1WF      WF67483  25.282   6.239   0.367  0.0103  0.0815  0.1490
    1WF      WF67484   8.252  27.500   1.095 -0.2132 -0.4778  0.0500
    1WF      WF67485  18.666  25.453   0.087 -0.1033  0.1645 -0.0200
    1WF      WF67486   1.579  10.225   1.003 -0.1325  0.2346  0.1782
    1WF      WF67487  18.938   7.000   9.091  0.1856 -0.4551 -0.0476
    1WF      WF67488  26.448   7.130   8.982 -0.1063  0.1757 -0.0464
    1WF      WF67489   0.631   2.796   6.745  0.2149 -0.0332 -0.0613
    1WF      WF67490  19.285  28.523   8.221  0.1905 -0.0354  0.0612
    1WF      WF67491  20.737  10.870   8.233 -0.0197 -0.0042  0.0250
    1WF      WF67492   1.151  21.384   8.721 -0.0591  0.1748 -0.3058
    1WF      WF67493  19.802   3.558   1.783 -0.0699  0.1870  0.0016
    1WF      WF67494   9.585  18.419   8.473  0.3329 -0.0766 -0.0218
    1WF      WF67495  17.188   8.045   0.457 -0.1033 -0.2224 -0.0827
    1WF      WF67496  14.232   3.664   1.378  0.0161  0.3433  0.0606
    1WF      WF67497   3.598  13.361   8.833 -0.0135 -0.0388  0.2341
    1WF      WF67498  21.729  21.603   8.876  0.2494 -0.0812 -0.1001
    1WF      WF67499   8.878   7.604   1.457  0.4349  0.0093  0.0911
    1WF      WF67500   9.430   3.490   0.391 -0.2135 -0.0407  0.2268
    1WF      WF67501  22.486   9.707   7.929  0.1045 -0.1450 -0.1499
    1WF      WF67502   8.673   6.830   2.367  0.2530  0.1008 -0.1821
    1WF      WF67503   2.600  22.888   6.552 -0.1062  0.0168 -0.0453
    1WF      WF67504  22.598   3.161   6.611 -0.0621  0.0307  0.3661
    1WF      WF67505  27.244  19.457   1.265 -0.1571  0.0740  0.1337
    1WF      WF67506  13.018  27.315   3.342 -0.0173  0.1844  0.2202
    1WF      WF67507  28.724   6.346   0.371 -0.1747  0.0102 -0.2768
    1WF      WF67508  29.339   5.070   2.317  0.0037 -0.0765 -0.0046
    1WF      WF67509   8.590  25.693   5.809  0.5136  0.1100 -0.2296
    1WF      WF67510  13.118  22.733   0.560  0.3062 -0.0359 -0.3334
    1WF      WF67511  22.853  12.953   1.556 -0.0948 -0.0533 -0.1645
    1WF      WF67512  17.666   9.880   0.125 -0.0394  0.2219 -0.0048
    1WF      WF67513  26.718   1.113   8.764  0.2404 -0.1344  0.1425
    1WF      WF67514   3.240  27.986   9.072 -0.1632 -0.3135 -0.0031
    1WF      WF67515   6.848  27.188   8.906 -0.0369  0.5951 -0.2136
    1WF      WF67516  22.674  25.347   1.638  0.2325 -0.0864  0.1301
    1WF      WF67517  16.079  21.791   0.094  0.2590 -0.0646  0.1455
    1WF      WF67518   7.378  22.302   8.611  0.2319 -0.1891  0.0314
    1WF      WF67519  11.617  17.324   0.429 -0.0646 -0.1308  0.1778
    1WF      WF67520  18.506   2.909   7.422 -0.1953  0.0930  0.3388
    1WF      WF67521  18.044  19.457   0.916 -0.2499  0.0126 -0.2249
    1WF      WF67522  18.878  28.762   7.989 -0.3199 -0.2314  0.0133
    1WF      WF67523  24.776  19.065   0.384  0.0725  0.0665 -0.3519
    1WF      WF67524  28.302  12.643   7.394 -0.2201 -0.0155 -0.0315
    1WF      WF67525  12.904  15.087   9.236  0.1715  0.0853  0.1867
    1WF      WF67526   3.877  26.312   6.498  0.1749  0.0869 -0.0354
    1WF      WF67527   2.411   6.997   8.540  0.0952  0.0291  0.0080
    1WF      WF67528  25.472  19.228   7.999 -0.0249  0.0617  0.0361
    1WF      WF67529  13.064   6.881   0.680  0.4294 -0.1219  0.1639
    1WF      WF67530   9.666  12.385   8.459  0.0152  0.1537  0.1057
    1WF      WF67531  25.190  12.451   1.048  0.0117 -0.1634 -0.0363
    1WF      WF67532  16.532   1.404   1.194  0.1077 -0.0480 -0.0569
    1WF      WF67533  28.221  23.364   8.121 -0.1153  0.4758  0.0140
    1WF      WF67534  17.977  20.194   1.225 -0.2259 -0.0373 -0.3210
    1WF      WF67535  21.445  24.125   0.856 -0.0900  0.0817 -0.2691
    1WF      WF67536   1.128   4.587   0.354 -0.2403  0.0372 -0.1130
    1WF      WF67537  24.191  28.254   9.276  0.0634  0.0685 -0.0017
    1WF      WF67538   4.696  10.109   1.472 -0.0194 -0.0090 -0.2078
    1WF      WF67539   9.375   3.323   2.785  0.0753 -0.1231  0.3004
    1WF      WF67540  20.706   6.696   9.172  0.1338  0.0692  0.1032
    1WF      WF67541  13.670   3.853   1.722 -0.3141 -0.1606  0.2271
    1WF      WF67542   1.479   6.495   0.377  0.0460 -0.0539  0.0672
    1WF      WF67543  23.155   6.991   0.770  0.0922 -0.1895 -0.1003
    1WF      WF67544  14.020  29.020   8.989 -0.0782  0.0430  0.0692
    1WF      WF67545  28.294  28.443   2.096  0.2898 -0.2757 -0.2018
    1WF      WF67546  29.378   0.733   2.047 -0.0107  0.2081  0.0869
    1WF      WF67547  18.307   4.702   7.515  0.0435 -0.3242 -0.1994
    1WF      WF67548  26.205  25.519   1.203  0.2159 -0.0079 -0.1980
    1WF      WF67549  19.535  18.561   0.744 -0.1539  0.0787  0.1872
    1WF      WF67550  14.714  14.981   1.106  0.1140  0.2765 -0.0206
    1WF      WF67551  20.532  12.651   8.932 -0.0865  0.0235  0.2524
    1WF      WF67552   9.491  22.763   5.893  0.1335 -0.2388  0.0353
    1WF      WF67553  16.684  26.573   9.144  0.2244 -0.0021  0.0980
    1WF      WF67554   1.848  21.569   0.353 -0.0434 -0.1651 -0.0704
    1WF      WF67555  10.808  19.138   8.531 -0.1639 -0.0272 -0.0717
    1WF      WF67556  29.570   3.447   1.114 -0.1067 -0.0819  0.2723
    1WF      WF67557  16.359  14.019   8.224  0.2730 -0.2667 -0.1708
    1WF      WF67558  25.382  29.324   0.031 -0.0511 -0.1553  0.1237
    1WF      WF67559  29.000  27.100   1.337  0.2769  0.0340  0.0289
    1WF      WF67560  19.861  26.353   6.922  0.3572 -0.0226 -0.3915
    1WF      WF67561  27.551   2.941   8.841  0.1467 -0.1220  0.1261
    1WF      WF67562   8.657  12.322   7.726 -0.2400 -0.0570  0.1313
    1WF      WF67563  23.296  23.390   8.092  0.4337  0.2041 -0.2664
    1WF      WF67564  26.959  25.982   8.837  0.0033  0.2756  0.0885
    1WF      WF67565  15.582  18.864   1.324 -0.1364  0.3558 -0.1476
    1WF      WF67566  23.820   4.342   0.996 -0.0860 -0.1407  0.0635
    1WF      WF67567   4.008  16.819   0.027  0.0800 -0.2528 -0.0594
    1WF      WF67568  28.736  12.023   7.874  0.0867  0.0614  0.1026
    1WF      WF67569   6.387  13.458   1.347  0.0830 -0.0574 -0.3876
    1WF      WF67570  19.128  28.696   0.151  0.1436  0.1983 -0.0919
    1WF      WF67571  22.607   3.454   1.378  0.0157 -0.0236 -0.3233
    1WF      WF67572  27.447  15.000   9.179  0.1415  0.0009  0.2549
    1WF      WF67573  29.569   2.197   8.985  0.0032 -0.0667  0.1077
    1WF      WF67574   5.368  11.602   8.120 -0.1364 -0.0993 -0.2314
    1WF      WF67575  15.480  23.030   8.050 -0.4640 -0.1358 -0.1602
    1WF      WF67576  26.063  11.736   7.649  0.0838  0.1916  0.2151
    1WF      WF67577   6.825   3.232   8.656 -0.3617 -0.0818 -0.3136
    1WF      WF67578  22.289   5.510   8.647  0.0747  0.1626  0.3305
    1WF      WF67579  26.375  24.133   1.561 -0.0097  0.2547  0.1119
    1WF      WF67580  17.432  15.686   8.519 -0.0385 -0.1886  0.0581
    1WF      WF67581  14.309   9.113   1.380 -0.0287  0.0746  0.0035
    1WF      WF67582   5.884  26.867   8.496 -0.2849  0.3031  0.3122
    1WF      WF67583  28.869  23.596   7.841 -0.0479  0.0042  0.1706
    1WF      WF67584  21.387  19.345   6.897 -0.0976  0.2446  0.0124
    1WF      WF67585  21.290  24.975   3.443  0.0996  0.0315  0.1489
    1WF      WF67586   6.274  26.319   0.292 -0.0610 -0.2205 -0.1665
    1WF      WF67587   8.409  29.125   3.484 -0.1370 -0.0489 -0.1260
    1WF      WF67588  17.380  27.355   3.510 -0.1920  0.4106 -0.0552
    1WF      WF67589   0.299  23.108   8.487  0.0081  0.0974 -0.0996
    1WF      WF67590  29.538  24.459   7.221  0.1857 -0.0902 -0.2308
    1WF      WF67591  16.559  26.234   2.678  0.0439  0.1657  0.0324
    1WF      WF67592  19.458   3.826   1.452 -0.1807  0.1891 -0.2347
    1WF      WF67593  27.187   4.462   8.056  0.1586 -0.1391 -0.2168
    1WF      WF67594  19.447  20.503   0.763 -0.2534 -0.0493 -0.3254
    1WF      WF67595  25.028   5.199   0.975 -0.0955 -0.2583 -0.2022
    1WF      WF67596   0.160  22.966   8.003 -0.0179 -0.3265 -0.1186
    1WF      WF67597   9.144  19.989   8.042  0.0184 -0.1330  0.1580
    1WF      WF67598  15.181   7.110   1.179  0.2845  0.0730  0.2172
    1WF      WF67599   3.582   9.816   8.705  0.3297 -0.1397 -0.3070
    1WF      WF67600   2.439  22.048   9.299 -0.0771 -0.2246 -0.1475
    1WF      WF67601   2.631  11.419   8.058 -0.1165  0.4102 -0.0914
    1WF      WF67602  21.575  15.570   8.283 -0.3909  0.1280 -0.1111
    1WF      WF67603   0.274  18.989   1.544  0.0034 -0.0040 -0.0563
    1WF      WF67604  13.138  28.423   2.017 -0.0473  0.1378  0.0824
    1WF      WF67605  26.975  22.599   7.969 -0.0015  0.1516 -0.0455
    1WF      WF67606   0.688  24.805   5.605  0.0328  0.2789 -0.0760
    1WF      WF67607   0.928   5.426   6.943 -0.0279  0.0802 -0.0782
    1WF      WF67608  16.266  23.181   1.187  0.1336  0.1132  0.1558
    1WF      WF67609  22.612  18.309   0.512  0.0153 -0.0969 -0.2383
    1WF      WF67610  13.782  28.033   0.965 -0.0456 -0.3042  0.4076
    1WF      WF67611   3.720   8.060   6.821  0.1164 -0.3725  0.2107
    1WF      WF67612  24.984   1.081   1.276  0.0269  0.1809  0.0921
    1WF      WF67613   7.796   9.208   2.032 -0.2495  0.0450  0.2559
    1WF      WF67614  27.646  29.733   8.042 -0.1750 -0.2853 -0.1714
    1WF      WF67615  25.512  13.579   6.370 -0.2076  0.1295 -0.0416
    1WF      WF67616   0.546   9.467   6.148 -0.1146  0.2059  0.1530
    1WF      WF67617   6.851   4.367   2.670 -0.1465  0.2694  0.2679
    1WF      WF67618  18.283  25.788   0.138  0.1027  0.1297 -0.1315
    1WF      WF67619  28.912   6.095   0.735  0.0288 -0.2688  0.1870
    1WF      WF67620   7.890  14.331   0.377  0.1458 -0.0830  0.1421
    1WF      WF67621  12.414  26.166   9.232 -0.3487 -0.2102  0.0013
    1WF      WF67622   3.728  25.358   8.545 -0.3403  0.2526  0.1317
    1WF      WF67623  20.332  15.412   9.312  0.1143  0.4451 -0.0583
    1WF      WF67624   4.996  28.120   8.118  0.3289  0.4854  0.3901
    1WF      WF67625  20.093  16.643   7.696  0.0396  0.0617  0.1859
    1WF      WF67626   5.027  26.851   6.433 -0.1419 -0.1060  0.0006
    1WF      WF67627  26.030   8.383   8.382  0.0177  0.1022 -0.0061
    1WF      WF67628  17.511  25.862   8.291  0.2739 -0.0814 -0.0840
    1WF      WF67629  11.280   2.121   4.135 -0.3761 -0.1511 -0.0266
    1WF      WF67630  23.035   8.827   9.332  0.0545  0.0172 -0.3291
    1WF      WF67631  15.783   1.646   2.157 -0.3620  0.0501  0.0495
    1WF      WF67632  15.104  15.815   8.797 -0.2474  0.2093  0.0120
    1WF      WF67633  23.665  13.832   2.745 -0.1780  0.0933 -0.1292
    1WF      WF67634  11.942  29.693   0.296  0.1874 -0.1247  0.0468
    1WF      WF67635   2.881   2.841   1.913 -0.5131 -0.4735  0.2388
    1WF      WF67636   0.440   0.021   6.962 -0.0824 -0.1370  0.1050
    1WF      WF67637  27.554   8.955   3.150 -0.2202  0.0578 -0.0400
    1WF      WF67638  24.076  10.548   7.741 -0.0381 -0.1177  0.0050
    1WF      WF67639  23.282  14.254   2.689  0.1295  0.0566 -0.1667
    1WF      WF67640  29.397  17.068   1.489  0.0200 -0.3365 -0.0048
    1WF      WF67641   3.407  14.599   5.768  0.2240 -0.1485  0.0738
    1WF      WF67642  28.936  28.178   1.051 -0.0475  0.2527  0.0126
    1WF      WF67643   3.187  24.762   7.512  0.0370  0.0305  0.3204
    1WF      WF67644  23.484  13.553   1.175 -0.1628 -0.1613 -0.1952
    1WF      WF67645  14.464  24.063   9.401 -0.0062 -0.1278  0.1170
    1WF      WF67646  13.794  22.215   7.656  0.3671  0.1413  0.0558
    1WF      WF67647  15.656  28.652   8.129  0.1169 -0.0406 -0.3158
    1WF      WF67648  23.133  28.498   8.287  0.0392 -0.3580 -0.1186
    1WF      WF67649  14.249  27.841   1.084 -0.1170  0.0432  0.2815
    1WF      WF67650  19.740  21.337   1.720  0.1328  0.0566 -0.0618
    1WF      WF67651  13.698   2.538   7.665  0.1344 -0.2248  0.2410
    1WF      WF67652  14.213  25.704   1.677  0.0729 -0.1588 -0.4013
    1WF      WF67653   5.443   4.480   1.122 -0.0984 -0.1832  0.1433
    1WF      WF67654   3.893   4.599   0.460 -0.1459  0.0206  0.0130
    1WF      WF67655  14.437  18.347   0.802 -0.0274 -0.0946 -0.2700
    1WF      WF67656   0.451  21.027   1.011 -0.0779 -0.0880  0.1743
    1WF      WF67657  19.127  13.275   0.278  0.1305 -0.0620 -0.2170
    1WF      WF67658   6.224  27.462   0.594 -0.0789 -0.1424 -0.2696
    1WF      WF67659   6.754  13.353   2.560  0.1495 -0.2234  0.2612
    1WF      WF67660   1.157   8.359   1.042  0.3275  0.2678  0.1541
    1WF      WF67661   0.807  12.232   1.107 -0.0932  0.0323 -0.0413
    1WF      WF67662  26.271  27.227   2.013 -0.1107  0.1111 -0.2291
    1WF      WF67663  12.655  15.835   8.768  0.0105 -0.3510 -0.1000
    1WF      WF67664  16.881   8.925   8.479  0.2921  0.3190  0.3102
    1WF      WF67665   2.092  29.754   0.662  0.0212  0.0481 -0.3426
    1WF      WF67666  19.428  12.958   0.506 -0.0172  0.1567 -0.2225
    1WF      WF67667  17.063  17.423   7.256 -0.2723 -0.0411  0.0936
    1WF      WF67668  18.863   6.955   7.821 -0.1849 -0.1645 -0.2654
    1WF      WF67669   6.613   9.267   3.584  0.3808 -0.2929  0.0191
    1WF      WF67670  18.696   7.727   8.127 -0.0412  0.3401  0.0575
    1WF      WF67671  29.304  24.718   9.274  0.2304  0.1682  0.1350
    1WF      WF67672  12.644   1.416   9.070  0.0974  0.0185  0.1426
    1WF      WF67673  26.316  26.926   6.713 -0.2204 -0.1894 -0.1467
    1WF      WF67674  24.864  21.868   6.350 -0.1627  0.1568 -0.1927
    1WF      WF67675   5.038  18.788   7.496 -0.1007  0.0261 -0.1872
    1WF      WF67676  15.205  17.627   1.848 -0.1003 -0.3783 -0.0193
    1WF      WF67677  25.794  14.648   0.302  0.1116 -0.2209 -0.1086
    1WF      WF67678  27.450  27.477   0.570 -0.1052  0.2893  0.3491
    1WF      WF67679   4.065  11.251   1.774  0.0107 -0.0741 -0.1135
    1WF      WF67680  15.606  18.368   1.346 -0.1995 -0.0037 -0.2432
    1WF      WF67681   5.810  22.829   1.085  0.2296 -0.1645  0.0598
    1WF      WF67682  28.997   3.694   7.999  0.0559 -0.2712 -0.1533
    1WF      WF67683  12.701  25.533   8.068  0.2242 -0.1995  0.2002
    1WF      WF67684  15.918   5.310   3.011 -0.0936 -0.1363  0.0681
    1WF      WF67685   5.408   5.956   9.264 -0.3066 -0.1368 -0.3391
    1WF      WF67686  21.994   2.684   1.298 -0.1978  0.3663  0.0180
    1WF      WF67687   2.209  25.668   7.425  0.0824 -0.0123 -0.1118
    1WF      WF67688  21.139   5.708   1.200 -0.0371 -0.0860  0.0865
    1WF      WF67689  25.009  23.823   8.531 -0.4104 -0.2261  0.0544
    1WF      WF67690   4.170   4.983   9.199  0.2691  0.1939 -0.1651
    1WF      WF67691  19.467   7.713   0.813 -0.0613 -0.1692 -0.0939
    1WF      WF67692  15.202  27.501   3.506 -0.0289 -0.1335 -0.0164
    1WF      WF67693  17.073  21.110   7.826 -0.2686 -0.0500 -0.1109
    1WF      WF67694  13.859  17.621   8.557 -0.1246  0.1718 -0.1277
    1WF      WF67695   7.704   5.561   6.999 -0.1159  0.0415 -0.2743
    1WF      WF67696  20.045  25.664   2.306  0.1318  0.2740  0.1525
    1WF      WF67697   6.754   9.537   3.167 -0.1507 -0.0450 -0.2463
    1WF      WF67698   8.648   8.297   0.512  0.0865 -0.3475 -0.0958
    1WF      WF67699  10.193  11.803   1.180  0.2049 -0.1712 -0.1448
    1WF      WF67700   0.772  13.792   0.956  0.1480 -0.1491 -0.2111
    1WF      WF67701  18.625   4.928   7.963 -0.2678 -0.2381  0.0964
    1WF      WF67702  25.798  18.864   7.964  0.0036 -0.1096 -0.0328
    1WF      WF67703  14.409  26.827   1.693  0.2777  0.0878 -0.0060
    1WF      WF67704   6.953  19.095   0.385 -0.2909 -0.2131 -0.1281
    1WF      WF67705  10.664   5.757   0.282 -0.2445  0.0212  0.0316
    1WF      WF67706  16.284  16.472   0.591  0.0407  0.0315 -0.2164
    1WF      WF67707   6.890  13.758   2.877 -0.0119 -0.0754 -0.0760
    1WF      WF67708   1.356  13.043   7.627  0.0940  0.0761 -0.1073
    1WF      WF67709  25.043  15.855   8.702  0.0280 -0.2545 -0.1407
    1WF      WF67710  17.318   3.966   7.739  0.1215  0.0222  0.0894
    1WF      WF67711  17.406   7.056   9.008  0.1181 -0.0220  0.0293
    1WF      WF67712  16.850  14.924   0.206 -0.1556  0.0909 -0.3542
    1WF      WF67713   5.269  19.377   7.656  0.3876  0.0403  0.0950
    1WF      WF67714  22.508   3.859   1.731  0.3195 -0.2523  0.0092
    1WF      WF67715  26.422  27.758   8.174  0.3093  0.1664  0.0797
    1WF      WF67716   0.556  12.695   0.952 -0.0921 -0.0940 -0.1690
    1WF      WF67717   2.544   4.430   0.823  0.2974 -0.0968  0.0746
    1WF      WF67718  18.720   1.587   8.129  0.0584 -0.1497  0.0595
    1WF      WF67719  19.896  25.160   7.605  0.2060  0.0252 -0.1493
    1WF      WF67720   7.286   6.230   0.773  0.0193 -0.0766  0.2717
    1WF      WF67721   2.304  17.442   6.408  0.0328 -0.3997 -0.0292
    1WF      WF67722  13.620  19.208   9.423  0.2197 -0.1896 -0.0047
    1WF      WF67723   2.655  18.838   8.406  0.1577 -0.1143 -0.1757
    1WF      WF67724   4.373   2.398   9.406  0.1524  0.1504  0.1530
    1WF      WF67725  15.580  28.712   1.291  0.2950 -0.0157 -0.1332
    1WF      WF67726   1.885   1.861   0.074 -0.2848 -0.2065  0.1932
    1WF      WF67727  22.211  21.438   1.804 -0.0240 -0.0305  0.3247
    1WF      WF67728   8.996  15.510   8.534 -0.1269  0.2702 -0.1099
    1WF      WF67729   7.041  12.955   0.889  0.2208 -0.0812 -0.1853
    1WF      WF67730  24.681  27.657   1.277 -0.0630 -0.1150 -0.0082
    1WF      WF67731  18.701  21.214   1.948 -0.1311 -0.0331  0.2099
    1WF      WF67732  29.143  14.582   5.804  0.0184 -0.0575  0.2141
    1WF      WF67733  19.450  10.518   7.396 -0.0417 -0.1509 -0.0273
    1WF      WF67734  25.728  25.301   1.073 -0.0260  0.0080  0.2887
    1WF      WF67735  17.026   5.407   0.758  0.1676 -0.0707  0.1117
    1WF      WF67736  24.808   7.216   1.186 -0.1237  0.0665 -0.0979
    1WF      WF67737  24.832   6.051   8.563 -0.0311  0.1778 -0.1967
    1WF      WF67738   8.398  12.879   0.180  0.2109  0.1070  0.2724
    1WF      WF67739  22.742  11.882   8.013  0.0262  0.0419  0.0949
    1WF      WF67740  21.430   2.073   2.619 -0.0099  0.1706  0.1969
    1WF      WF67741   4.445  22.259   7.648  0.0688  0.0906 -0.0632
    1WF      WF67742  24.483  26.345   8.809  0.0983  0.2010 -0.1380
    1WF      WF67743  25.698  18.436   7.690  0.3816 -0.3008 -0.3433
    1WF      WF67744   1.816  27.109   1.803  0.2137  0.0300  0.3340
    1WF      WF67745  29.406   9.659   0.529  0.2623 -0.1906  0.0832
    1WF      WF67746   8.920   4.063   6.987 -0.4216  0.0256 -0.1133
    1WF      WF67747   2.858  18.706   1.041  0.2222 -0.0638 -0.3158
    1WF      WF67748  12.312  25.867   8.081  0.0796  0.0357 -0.2512
    1WF      WF67749   4.755  12.804   7.461  0.0880  0.0467  0.0620
    1WF      WF67750  22.029  21.445   8.501 -0.0906  0.3426 -0.0801
    1WF      WF67751  23.028  19.699   2.531  0.1043  0.0300  0.3423
    1WF      WF67752   9.693  19.884   7.693 -0.1097 -0.0092  0.2370
    1WF      WF67753   3.420  22.235   6.759  0.2900 -0.0679  0.0231
    1WF      WF67754  11.256   6.074   3.042  0.0848 -0.0585 -0.1310
    1WF      WF67755   4.959   1.141   8.907  0.5573 -0.1134  0.1600
    1WF      WF67756   2.407  21.246   7.709  0.1055 -0.1212 -0.0876
    1WF      WF67757   8.672  11.151   8.900 -0.0133 -0.0197 -0.1880
    1WF      WF67758  15.253  13.175   0.932  0.1506  0.0256 -0.0168
    1WF      WF67759  26.403  16.136   8.001 -0.3378  0.0264 -0.1129
    1WF      WF67760   6.178  21.362   8.179 -0.0091  0.0060 -0.2162
    1WF      WF67761   7.017  15.051   8.223  0.3066  0.0265 -0.3316
    1WF      WF67762  22.892   8.174   7.382 -0.2177 -0.2129 -0.1442
    1WF      WF67763  19.635  28.530   0.172  0.0209 -0.1423  0.1027
    1WF      WF67764  29.015  24.098   7.972  0.0742  0.0447  0.1071
    1WF      WF67765   2.739  20.848   7.775  0.1452  0.0605 -0.0788
    1WF      WF67766  12.282  24.888   0.868  0.0636 -0.1315  0.3221
    1WF      WF67767  25.796   3.638   1.072 -0.2681 -0.1151 -0.0377
    1WF      WF67768  26.844  19.883   9.368 -0.2069  0.1974  0.0304
    1WF      WF67769  18.125   4.519   8.984 -0.4691  0.1948  0.2205
    1WF      WF67770  10.353  10.260   8.074  0.1695 -0.1547  0.1988
    1WF      WF67771  17.102  10.885   8.331 -0.2282 -0.0159 -0.0893
    1WF      WF67772   0.788  21.477   9.062 -0.1850  0.0658  0.0959
    1WF      WF67773   6.213  27.196   8.259 -0.0875  0.1129  0.1709
    1WF      WF67774  15.305  19.975   0.137  0.1638  0.1995  0.1353
    1WF      WF67775  25.595  22.115   0.013 -0.3468 -0.0717 -0.0533
    1WF      WF67776   0.827   4.005   7.753  0.1425  0.0027 -0.3683
    1WF      WF67777  16.580  23.354   0.773  0.0386  0.1787  0.1629
    1WF      WF67778  11.935  17.142   0.833 -0.1759 -0.1785 -0.1385
    1WF      WF67779  14.014  24.458   8.240 -0.0242 -0.2997  0.0268
    1WF      WF67780  29.042   7.760   9.426 -0.0337  0.1314 -0.0092
    1WF      WF67781   5.512  15.115   8.090 -0.1250  0.0397  0.1353
    1WF      WF67782  15.285   5.612   1.639 -0.1293 -0.0250  0.0900
    1WF      WF67783  24.279  18.199   8.443 -0.2056  0.0372  0.2461
    1WF      WF67784  24.245  12.700   7.556  0.1473  0.0030  0.2237
    1WF      WF67785  28.900  11.247   1.601  0.1835  0.3146 -0.0559
    1WF      WF67786   7.999  17.370   9.096 -0.0485  0.0103  0.1699
    1WF      WF67787  12.092   5.452   2.017  0.0382 -0.0214 -0.0546
    1WF      WF67788  17.367  27.482   9.179  0.0977  0.0016 -0.2026
    1WF      WF67789  11.635   7.904   1.660  0.4381  0.1979  0.0942
    1WF      WF67790   0.007  16.526   0.718  0.2117 -0.1367 -0.2872
    1WF      WF67791  22.560  12.302   7.753 -0.0236  0.0388  0.2131
    1WF      WF67792   1.475  18.376   7.971 -0.4547  0.1343 -0.3836
    1WF      WF67793   4.912  23.703   0.139 -0.2627 -0.1079  0.0091
    1WF      WF67794  21.823  27.870   0.271  0.2972 -0.1029 -0.1611
    1WF      WF67795   6.115  26.339   9.208  0.0095  0.2489  0.0558
    1WF      WF67796  26.217   8.663   8.763  0.0930 -0.0333  0.0989
    1WF      WF67797  11.474  28.422   7.290  0.3357  0.1616  0.0060
    1WF      WF67798  20.914  27.827   9.008  0.1187 -0.1524 -0.0187
    1WF      WF67799  27.112  15.267   2.526 -0.0068  0.2121  0.1254
    1WF      WF67800  23.799   3.329   2.438 -0.2144  0.3989 -0.1655
    1WF      WF67801  27.780   2.546   9.096  0.2678 -0.1520 -0.5040
    1WF      WF67802  14.624  11.673   8.485 -0.1051  0.0091  0.0279
    1WF      WF67803   5.376  10.871   6.341  0.1379 -0.0341 -0.0504
    1WF      WF67804   3.015  21.469   1.379 -0.0091 -0.3129  0.2631
    1WF      WF67805  24.111   6.904   0.468  0.1302 -0.1541 -0.0498
    1WF      WF67806  20.833  20.078   3.326 -0.0368 -0.1548 -0.1641
    1WF      WF67807  13.687  19.750   8.128  0.3651 -0.1781 -0.2092
    1WF      WF67808   6.167   2.523   2.317  0.1000 -0.1934 -0.0195
    1WF      WF67809  12.899  16.907   9.127 -0.1014 -0.1904  0.2416
    1WF      WF67810  15.308  29.251   8.728 -0.0002  0.0375 -0.4183
    1WF      WF67811   5.705  28.311   0.323  0.0027  0.2489  0.0959
    1WF      WF67812   8.000  25.324   0.141 -0.0841 -0.1286  0.2564
    1WF      WF67813  15.201  10.327   0.224 -0.2881  0.1257 -0.2069
    1WF      WF67814   8.482  20.984   6.725  0.2321  0.0409 -0.1447
    1WF      WF67815  11.543  25.582   1.029 -0.0177  0.2027 -0.2064
    1WF      WF67816   2.743   4.878   9.307  0.1607 -0.0926  0.1740
    1WF      WF67817   4.087  13.531   8.724 -0.1448  0.1797  0.0901
    1WF      WF67818   8.724  16.742   0.701  0.0409 -0.2321  0.0576
    1WF      WF67819  21.373   6.049   7.768  0.0274 -0.1227 -0.1388
    1WF      WF67820   3.575   4.088   8.178  0.4289 -0.5247  0.2540
    1WF      WF67821  23.160  27.794   1.300 -0.1593  0.0694  0.3199
    1WF      WF67822  15.355  20.611   8.343  0.0554 -0.0212  0.1695
    1WF      WF67823  11.725   5.859   0.394 -0.2147  0.1988 -0.0034
    1WF      WF67824  21.838  17.782   0.265  0.2046  0.0517 -0.4411
    1WF      WF67825  21.032  28.352   9.060  0.1668 -0.2075  0.1962
    1WF      WF67826  25.192  14.744   0.222 -0.1482  0.0851  0.1787
    1WF      WF67827   6.936  29.324   7.517 -0.0727 -0.2128 -0.0821
    1WF      WF67828  28.882  10.807   1.869 -0.0117 -0.1655 -0.1971
    1WF      WF67829  27.796   7.801   7.600 -0.0027  0.0007  0.0165
    1WF      WF67830  28.000  18.166   8.282 -0.2046  0.0210  0.2421
    1WF      WF67831  17.836  11.379   9.096 -0.1671  0.2023 -0.0680
    1WF      WF67832  11.904   1.439   2.019 -0.1544  0.0872 -0.0845
    1WF      WF67833  18.340  17.211   0.833 -0.2606 -0.0902 -0.0859
    1WF      WF67834  20.625  22.307   7.522  0.1180  0.0051  0.1510
    1WF      WF67835  29.660   8.928   2.259  0.1883  0.3709 -0.0966
    1WF      WF67836   6.111  17.959   1.128 -0.2486 -0.2119 -0.0646
    1WF      WF67837   3.714  10.054   8.190  0.0951  0.1841  0.2499
    1WF      WF67838   8.213  12.681   2.307 -0.1229  0.1886 -0.1714
    1WF      WF67839  13.845  26.774   7.882  0.0559  0.0104  0.0364
    1WF      WF67840  17.731  19.889   8.817 -0.1730 -0.0372 -0.1335
    1WF      WF67841  26.727  23.758   0.046 -0.0280  0.0746  0.2076
    1WF      WF67842   2.138  19.817   7.869 -0.1052  0.0627  0.1124
    1WF      WF67843   7.045  12.551   7.614  0.0564 -0.0011 -0.2081
    1WF      WF67844   8.218  11.398   8.978 -0.0254 -0.3359 -0.1271
    1WF      WF67845  12.418  18.382   0.857 -0.1120  0.2544 -0.1496
    1WF      WF67846  19.642   7.515   1.282  0.0016 -0.0019 -0.0572
    1WF      WF67847   4.299  22.779   7.668  0.0316 -0.2513 -0.1809
    1WF      WF67848   8.942   5.948   7.388  0.0250  0.0269  0.0612
    1WF      WF67849  23.520  12.606   0.735  0.3308 -0.0114 -0.0315
    1WF      WF67850   8.179  25.259   9.111  0.3064  0.0583  0.3633
    1WF      WF67851  29.115  26.509   7.330  0.3516 -0.1792 -0.1236
    1WF      WF67852  25.587  11.019   7.911 -0.0782 -0.0887 -0.0847
    1WF      WF67853   5.524  22.513   0.774 -0.0824  0.0119 -0.1914
    1WF      WF67854  12.411  15.000   9.168 -0.0124 -0.2314 -0.1339
    1WF      WF67855   3.594  17.466   2.236 -0.3363 -0.1780  0.0267
    1WF      WF67856   7.699  28.300   8.327 -0.2707  0.2154  0.1068
    1WF      WF67857  19.191  23.481   7.776  0.2010  0.0062  0.0467
    1WF      WF67858   3.993  22.340   8.917  0.1708 -0.0162  0.2149
    1WF      WF67859   3.190   1.262   6.400  0.0994  0.2057  0.1494
    1WF      WF67860   3.150  28.877   9.001  0.0560  0.0683  0.1593
    1WF      WF67861  19.871   0.172   0.955 -0.4771 -0.0012  0.0653
    1WF      WF67862   5.458  18.411   2.207 -0.0243  0.2626  0.0050
    1WF      WF67863  19.136  17.867   9.110 -0.0474  0.0917  0.0622
    1WF      WF67864  29.026  19.975   1.128  0.1348 -0.0180 -0.0547
    1WF      WF67865  28.636   8.067   9.153  0.2434  0.0641 -0.0702
    1WF      WF67866  11.149  22.014   7.924 -0.0454  0.1221  0.0907
    1WF      WF67867  28.291  15.355   9.143  0.2251 -0.2207  0.0625
    1WF      WF67868   7.117  17.065   9.253 -0.0329  0.0059  0.2570
    1WF      WF67869  11.743  16.481   8.552 -0.2385  0.1258 -0.3033
    1WF      WF67870   9.888   6.603   0.603  0.0063 -0.0062 -0.0360
    1WF      WF67871   6.156  17.463   1.141 -0.1468  0.0680  0.3785
    1WF      WF67872   8.316  12.542   7.444  0.1210 -0.0356  0.0786
    1WF      WF67873  22.520   9.092   1.355  0.0572 -0.0594  0.1390
    1WF      WF67874   0.513  13.791   9.136  0.1786  0.1201  0.0798
    1WF      WF67875  25.258  14.314   7.925 -0.2884  0.0203 -0.1561
    1WF      WF67876   7.706   4.858   3.729 -0.0377 -0.1804 -0.1012
    1WF      WF67877  21.179  15.657   0.135 -0.0799  0.1416  0.2016
    1WF      WF67878  17.346  17.051   9.072 -0.6063  0.0745 -0.1107
    1WF      WF67879  17.786  27.669   0.115  0.0585  0.2341 -0.0652
    1WF      WF67880   6.829   2.375   0.446  0.1214  0.1197  0.0488
    1WF      WF67881   6.151   8.751   3.565  0.1910  0.1224 -0.0901
    1WF      WF67882   7.401   0.377   9.222 -0.3182 -0.3724  0.0677
    1WF      WF67883   3.935  28.670   7.496  0.0228  0.1184 -0.0653
    1WF      WF67884  28.522  18.089   8.440 -0.2241 -0.2400  0.1100
    1WF      WF67885   0.608  14.508   6.528 -0.0558  0.3492 -0.1206
    1WF      WF67886   7.649  25.266   0.519 -0.1809  0.4422 -0.1817
    1WF      WF67887   3.257   7.404   8.269  0.2826  0.0066 -0.1069
    1WF      WF67888   9.078  28.331   7.940  0.2081 -0.1873 -0.0722
    1WF      WF67889  16.574   2.568   1.663  0.0223  0.1422  0.4146
    1WF      WF67890   4.315  10.350   1.280  0.1047 -0.1428  0.2364
    1WF      WF67891  29.137  24.499   8.836  0.0998 -0.1410 -0.1254
    1WF      WF67892   7.895  16.844   7.984 -0.3425  0.2276  0.1498
    1WF      WF67893  25.326  19.484   1.630 -0.2210 -0.1655  0.0622
    1WF      WF67894   0.126  21.175   1.333 -0.0202 -0.1118  0.0492
    1WF      WF67895   9.304  12.112   0.740  0.3713 -0.2476 -0.0210
    1WF      WF67896  17.016  10.055   0.429  0.0967 -0.0147  0.0022
    1WF      WF67897  24.273  27.138   8.163  0.2030 -0.1281  0.2299
    1WF      WF67898   1.158  19.833   7.033 -0.0112 -0.1496 -0.1101
    1WF      WF67899  21.817  11.526   0.125 -0.0189 -0.2728 -0.0998
    1WF      WF67900  22.188  18.150   0.902  0.0401  0.0059  0.1405
    1WF      WF67901  23.149  10.489   7.029 -0.2714  0.2503  0.1784
    1WF      WF67902  24.233  20.234   0.619  0.0613  0.1795 -0.2038
    1WF      WF67903  13.921  23.982   8.076 -0.1843 -0.1051  0.3878
    1WF      WF67904   2.747   3.263   8.322 -0.0883 -0.2348 -0.0529
    1WF      WF67905   1.343   8.212   1.564 -0.2762  0.0709 -0.2138
    1WF      WF67906   4.801   3.510   0.797  0.0163  0.1502 -0.0757
    1WF      WF67907  18.058  16.804   9.270 -0.0007  0.0780  0.1063
    1WF      WF67908  28.255   9.194   6.991  0.2199  0.2611  0.2783
    1WF      WF67909  28.832   5.607   0.843  0.1628 -0.4421 -0.0916
    1WF      WF67910  29.002  16.355   9.243  0.0750 -0.0448 -0.1651
    1WF      WF67911  15.529   7.778   0.369  0.1495 -0.0090 -0.1728
    1WF      WF67912  12.384  28.730   0.251  0.2591  0.4623  0.1085
    1WF      WF67913  27.208  21.281   0.213 -0.1133 -0.1688  0.2477
    1WF      WF67914  23.128   6.995   8.530  0.0693  0.1560 -0.1148
    1WF      WF67915  10.705   4.729   8.583  0.2804  0.0257 -0.2150
    1WF      WF67916  29.592  14.875   1.263 -0.0674 -0.0404 -0.0045
    1WF      WF67917   5.184   4.155   0.793 -0.0209  0.1732  0.1892
    1WF      WF67918  22.407  11.746   7.623 -0.0851  0.1958  0.0163
    1WF      WF67919  13.782  18.716   0.040  0.1656 -0.1094  0.1398
    1WF      WF67920   5.280  27.238   1.733  0.3361  0.3254 -0.0878
    1WF      WF67921  14.893  11.693   8.036 -0.1827  0.2328 -0.1869
    1WF      WF67922  18.179  14.730   8.731 -0.0078  0.0310 -0.0934
    1WF      WF67923  28.884   2.304   1.557  0.1751 -0.0573 -0.0995
    1WF      WF67924   8.678   6.641   8.766 -0.0627 -0.2540  0.1272
    1WF      WF67925   8.269  11.081   1.387  0.5351  0.0436  0.1372
    1WF      WF67926  24.405   8.277   8.408 -0.1508 -0.1703 -0.1120
    1WF      WF67927  13.781  28.087   3.538 -0.1475  0.0362 -0.4065
    1WF      WF67928   3.448   7.916   2.876 -0.0049  0.1397  0.0045
    1WF      WF67929  29.462  16.899   1.031  0.0380  0.1436 -0.1201
    1WF      WF67930   5.437  25.084   0.266 -0.2876 -0.1173 -0.0451
    1WF      WF67931  19.445   8.388   6.172 -0.0739  0.0523 -0.0491
    1WF      WF67932  27.086   3.784   0.523 -0.0120  0.0107 -0.0251
    1WF      WF67933   9.774   4.728   2.770 -0.2561 -0.0081 -0.2952
    1WF      WF67934   8.800   4.235   1.597 -0.2682  0.3039  0.2193
    1WF      WF67935  15.573  19.356   1.343  0.0394 -0.0328  0.1466
    1WF      WF67936   0.206   1.981   2.802  0.0233 -0.4123 -0.1271
    1WF      WF67937  16.649   7.380   0.138  0.1091 -0.2070 -0.0935
    1WF      WF67938  13.975   9.044   0.902 -0.3558 -0.0850 -0.0250
    1WF      WF67939  11.860  29.002   0.055 -0.0244 -0.1992  0.0356
    1WF      WF67940  13.950   1.443   1.639  0.1996  0.5842  0.1356
    1WF      WF67941  26.776  11.310   0.245  0.1236 -0.3783  0.0447
    1WF      WF67942   8.609  17.203   0.283 -0.0575  0.4202 -0.4160
    1WF      WF67943  25.598  13.052   7.301  0.0696  0.0269 -0.0753
    1WF      WF67944  27.332  19.410   6.201 -0.0688  0.0891  0.0267
    1WF      WF67945  19.279  28.029   8.408  0.2501 -0.1257  0.1077
    1WF      WF67946  28.226   1.639   6.692  0.1106 -0.2462  0.1859
    1WF      WF67947  12.119  28.573   8.675  0.0888 -0.0793 -0.3560
    1WF      WF67948   6.164   7.160   8.910 -0.0707  0.1970 -0.1334
    1WF      WF67949  10.044  20.071   1.332 -0.1634 -0.0876 -0.1787
    1WF      WF67950   8.473  19.044   9.224 -0.0914 -0.2112 -0.2123
    1WF      WF67951  22.202  27.944   9.374  0.0534  0.4026  0.3112
    1WF      WF67952  28.686   9.370   7.487 -0.0847 -0.1218  0.0221
    1WF      WF67953  11.477  19.132   6.998 -0.0805 -0.2108 -0.0299
    1WF      WF67954  26.602   3.417   8.396  0.0139 -0.0798  0.0466
    1WF      WF67955   8.781  19.064   6.035  0.1540  0.1457  0.1172
    1WF      WF67956  16.683   4.867   8.052  0.0238  0.0809  0.3143
    1WF      WF67957   3.882   5.400   9.105  0.1078  0.1337  0.1126
    1WF      WF67958  12.139  22.475   0.264 -0.3270 -0.2752  0.1695
    1WF      WF67959  16.005   5.233   8.620  0.1541  0.1391 -0.1609
    1WF      WF67960  13.489   7.175   0.155  0.3714  0.2513 -0.2457
    1WF      WF67961   3.905  10.285   1.014 -0.1198 -0.1973  0.1560
    1WF      WF67962   6.074   8.063   8.667 -0.3118  0.1959  0.2532
    1WF      WF67963  12.997  24.604   8.306 -0.1983 -0.1735 -0.3349
    1WF      WF67964   6.340  25.758   2.696  0.1133  0.2646  0.2242
    1WF      WF67965  24.541  10.654   1.127  0.1258  0.2537  0.0644
    1WF      WF67966   5.094  11.210   8.168 -0.0994  0.2181 -0.0136
    1WF      WF67967   0.959  13.849   0.461  0.1838 -0.0560  0.0469
    1WF      WF67968  15.724   4.896   8.814  0.1780 -0.0689 -0.0738
    1WF      WF67969  29.103  21.987   8.937  0.0878  0.1082  0.0633
    1WF      WF67970  27.492  24.600   1.701 -0.0633 -0.0785 -0.2360
    1WF      WF67971  15.902  24.344   8.874 -0.0067  0.0460 -0.3311
    1WF      WF67972  17.615   6.353   2.190 -0.2108 -0.4084  0.1074
    1WF      WF67973   5.710  16.540   9.301 -0.1764 -0.1324  0.1791
    1WF      WF67974  10.943  25.028   8.092  0.3118 -0.3071 -0.1767
    1WF      WF67975   5.255   5.034   6.608 -0.1339  0.0229  0.0614
    1WF      WF67976  15.162   7.090   1.664  0.1365  0.2120 -0.0549
    1WF      WF67977   6.668  28.709   0.097  0.2567  0.1848 -0.2987
    1WF      WF67978  19.081  27.109   8.453  0.3133  0.0423 -0.1173
    1WF      WF67979  18.087  27.207   6.475  0.1568  0.1105  0.0097
    1WF      WF67980  20.143   5.766   8.907 -0.0081 -0.0188 -0.2285
    1WF      WF67981  28.063  17.958   9.140  0.2291 -0.4775  0.1070
    1WF      WF67982   6.872  28.588   9.015 -0.2445 -0.1149 -0.4081
    1WF      WF67983  23.837  14.076   0.461  0.1027  0.0621 -0.3926
    1WF      WF67984  29.424  16.495   0.067  0.0049  0.0915  0.2431
    1WF      WF67985  12.673  19.917   8.999 -0.0743  0.0837  0.2450
    1WF      WF67986  26.796  26.800   0.297 -0.0353  0.1692  0.1250
    1WF      WF67987   2.943  21.065   8.201  0.1688 -0.1511 -0.2257
    1WF      WF67988   0.015  13.403   9.305 -0.0631 -0.1206 -0.2696
    1WF      WF67989  12.196  16.792   8.699 -0.3910 -0.3649 -0.0250
    1WF      WF67990  20.077  24.798   8.011 -0.0078 -0.0540  0.1696
    1WF      WF67991  15.304  29.002   3.541 -0.0583 -0.3204  0.2135
    1WF      WF67992  10.141   9.812   7.897 -0.2803 -0.0204 -0.2025
    1WF      WF67993  27.579  25.736   0.115  0.2004 -0.1324  0.1368
    1WF      WF67994  26.988  19.063   9.135 -0.1448  0.2221  0.0103
    1WF      WF67995  20.240   5.590   8.362 -0.0480 -0.2061  0.0031
    1WF      WF67996   7.912  24.368   7.107 -0.1472 -0.1062 -0.0143
    1WF      WF67997  27.069  12.975   9.447 -0.1704 -0.0662  0.1916
    1WF      WF67998  21.539  13.214   1.372 -0.1257 -0.1477 -0.0489
    1WF      WF67999  11.114  29.788   1.022 -0.0859  0.0154  0.1334
    1WF      WF68000  15.657  26.416   9.136 -0.0498 -0.1477  0.4267
    1WF      WF68001  27.207   8.195   0.898  0.1536 -0.0585 -0.2599
    1WF      WF68002  22.924  10.033   6.819  0.2104 -0.0770  0.2710
    1WF      WF68003  16.794  14.173   8.325  0.0573 -0.2937  0.0274
    1WF      WF68004  29.269  17.521   6.436  0.0464  0.0733 -0.1278
    1WF      WF68005   5.027  24.431   1.667  0.2123  0.0193 -0.0311
    1WF      WF68006  22.171  12.060   8.031 -0.0594  0.0756  0.2210
    1WF      WF68007  18.138  13.468   0.876  0.0659  0.1271  0.0446
    1WF      WF68008  26.664   8.829   0.753  0.2259  0.1150  0.0054
    1WF      WF68009  21.805  12.007   1.310  0.1612 -0.1126 -0.0345
    1WF      WF68010   8.633   9.830   8.892  0.0517  0.2759  0.0721
    1WF      WF68011  24.455   7.038   0.896 -0.4005 -0.0086  0.0867
    1WF      WF68012  26.788  12.040   8.999  0.2198  0.1719 -0.1506
    1WF      WF68013   8.848  12.895   9.326 -0.1325  0.0553  0.1111
    1WF      WF68014  11.962   7.636   1.152  0.1113  0.1730  0.0310
    1WF      WF68015  25.190  13.298   7.291  0.1760  0.1153 -0.0791
    1WF      WF68016   3.018  17.566   7.521  0.1739 -0.4114 -0.1436
    1WF      WF68017  26.831  14.429   8.930  0.0926 -0.0128 -0.0410
    1WF      WF68018  16.661  23.095   6.902  0.4348  0.0304  0.0400
    1WF      WF68019   8.659   7.274   2.121 -0.0574  0.0754 -0.0438
    1WF      WF68020  10.196   3.675   2.420 -0.1940 -0.0022 -0.0071
    1WF      WF68021  23.549   7.096   0.369  0.1641  0.0114 -0.0202
    1WF      WF68022  18.541  19.936   8.765  0.1616 -0.2521  0.1388
    1WF      WF68023   5.871  24.904   7.447  0.0554  0.1709 -0.0794
    1WF      WF68024  18.132  13.425   8.577 -0.3208  0.1039  0.1449
    1WF      WF68025   1.664  26.104   1.649 -0.1335  0.1332 -0.1921
    1WF      WF68026  26.020  19.019   2.963 -0.1821  0.0565 -0.3543
    1WF      WF68027  28.170  14.486   1.169  0.1561 -0.2524 -0.1810
    1WF      WF68028  26.998  12.390   8.605 -0.0865  0.3502 -0.2359
    1WF      WF68029   0.576  13.329   8.943 -0.1035 -0.1994  0.1433
    1WF      WF68030  13.228  25.076   7.135  0.1322 -0.0072  0.2504
    1WF      WF68031  25.345  24.262   8.598 -0.0619 -0.2636  0.2194
    1WF      WF68032   7.106  11.494   0.405  0.3595 -0.0482  0.3029
    1WF      WF68033   2.330  21.937   0.741  0.0906  0.1421 -0.0985
    1WF      WF68034   6.996  29.762   1.468 -0.0604  0.1978 -0.2046
    1WF      WF68035   7.374  22.571   8.170  0.0686  0.0968  0.1759
    1WF      WF68036   8.076   5.183   6.770 -0.0774  0.1423  0.0885
    1WF      WF68037  26.413  17.447   1.024  0.0858  0.0443 -0.2239
    1WF      WF68038   1.492  22.269   8.107 -0.1354  0.2358 -0.0570
    1WF      WF68039  15.021   1.742   7.798  0.0390 -0.1524  0.1458
    1WF      WF68040  13.110  13.277   0.463  0.2113  0.0121  0.0990
    1WF      WF68041  18.354  18.584   8.950 -0.3582 -0.2996  0.4414
    1WF      WF68042  12.360  26.376   8.426  0.0921  0.0711 -0.2322
    1WF      WF68043  18.114   1.965   1.382  0.2404 -0.0619  0.1094
    1WF      WF68044   5.635   6.362   3.904 -0.1903  0.1586  0.1162
    1WF      WF68045   3.085   7.726   8.586  0.0711 -0.0410 -0.1492
    1WF      WF68046  16.493  14.456   8.565  0.1122  0.0231 -0.0589
    1WF      WF68047  16.476  29.717   0.376 -0.1827  0.0247  0.3770
    1WF      WF68048   9.950  23.527   0.311 -0.1462  0.1127  0.0380
    1WF      WF68049  25.219  23.217   0.283 -0.0851 -0.4183  0.1411
    1WF      WF68050   2.396   4.670   9.031 -0.0096 -0.0629 -0.0420
    1WF      WF68051  12.126   8.058   0.218  0.0015  0.0639  0.0439
    1WF      WF68052   1.972  26.649   1.798  0.0667  0.1915 -0.0217
    1WF      WF68053  25.303  13.148   6.244 -0.1526 -0.0773 -0.0843
    1WF      WF68054  23.213  13.008   0.615  0.1498 -0.0866  0.0444
    1WF      WF68055   1.476  18.216   2.123 -0.1985  0.0011 -0.2380
    1WF      WF68056  23.214   1.565   8.282 -0.0130  0.2088  0.2366
    1WF      WF68057  28.463   7.520   7.766  0.2951 -0.0005  0.0106
    1WF      WF68058  23.776  24.481   0.089  0.0088  0.0380  0.3145
    1WF      WF68059  23.247  13.978   9.255 -0.0797  0.0290  0.4600
    1WF      WF68060   2.948   8.452   1.895 -0.0050  0.0497 -0.0008
    1WF      WF68061  29.298  16.134   7.780 -0.0556 -0.1063  0.0762
    1WF      WF68062   2.079  10.614   2.811 -0.0968 -0.0841 -0.0601
    1WF      WF68063  20.601  23.974   7.845  0.1667 -0.2765 -0.2352
    1WF      WF68064  21.294  28.839   9.090  0.2756 -0.0558  0.1300
    1WF      WF68065   1.922  26.317   0.394 -0.1502 -0.0715  0.2553
    1WF      WF68066   0.167  26.443   7.937  0.4672  0.1847  0.1122
    1WF      WF68067  11.090   9.328   0.905 -0.0571 -0.3113 -0.0350
    1WF      WF68068  29.584  25.164   9.032 -0.0119  0.0165  0.4971
    1WF      WF68069   2.824  12.409   6.640  0.2476 -0.1880  0.0565
    1WF      WF68070   9.088   5.780   8.680 -0.1204 -0.0253  0.1581
    1WF      WF68071  15.661   5.215   1.763 -0.0050  0.0073 -0.1625
    1WF      WF68072  21.532   5.384   0.458 -0.3592 -0.1532 -0.0678
    1WF      WF68073  22.288  24.858   8.223  0.0091 -0.2092 -0.1387
    1WF      WF68074   8.753  29.637   1.368  0.4396  0.0980 -0.1209
    1WF      WF68075  11.821  17.718   0.536  0.0874  0.2469  0.3108
    1WF      WF68076  25.482  29.386   2.248  0.0527  0.3472 -0.0743
    1WF      WF68077  26.632  24.246   9.218  0.0905 -0.0024  0.1300
    1WF      WF68078  20.744  14.195   7.944 -0.0946 -0.0407 -0.1371
    1WF      WF68079  12.571  15.483   9.213 -0.1807 -0.1296 -0.1413
    1WF      WF68080  26.660  20.514   7.148  0.0043 -0.0442 -0.1646
    1WF      WF68081   2.796  22.669   2.039  0.0441 -0.2569 -0.0477
    1WF      WF68082   0.738  28.826   1.975 -0.0380  0.0512  0.0868
    1WF      WF68083  29.786   1.149   7.862  0.1593  0.0306  0.0500
    1WF      WF68084   1.759   3.030   9.154 -0.1680 -0.3443  0.1602
    1WF      WF68085   9.959   8.721   1.461  0.0264 -0.2887  0.0204
    1WF      WF68086  13.590  23.117   7.922  0.0643 -0.0483  0.0883
    1WF      WF68087  13.618  28.155   8.995  0.0734 -0.0530 -0.0543
    1WF      WF68088   4.126  27.880   0.364 -0.2487  0.1340 -0.1146
    1WF      WF68089  12.141  28.023   8.484  0.2951 -0.3836  0.0408
    1WF      WF68090  28.957   1.412   1.143 -0.3133 -0.3516  0.0952
    1WF      WF68091  13.319  25.190   9.091 -0.0552  0.3437  0.2364
    1WF      WF68092  10.628   0.089   1.048 -0.1753 -0.1996 -0.1326
    1WF      WF68093  19.503  15.815   9.217  0.0028 -0.0175  0.0782
    1WF      WF68094   2.191  24.801   1.727 -0.1340 -0.1856  0.0430
    1WF      WF68095   0.608  24.384   7.547 -0.1112 -0.1285 -0.4101
    1WF      WF68096   3.662  23.204   0.884 -0.1079 -0.4172  0.1739
    1WF      WF68097   0.964   9.239   7.322  0.1181 -0.0055  0.0034
    1WF      WF68098  29.252   6.021   8.666 -0.1915 -0.1580 -0.0075
    1WF      WF68099  11.027   6.007   2.600 -0.1157 -0.3974  0.1554
    1WF      WF68100   0.360  28.795   0.329  0.1493  0.2575 -0.1074
    1WF      WF68101  18.571  14.478   8.857  0.1180  0.2987  0.3584
    1WF      WF68102  23.671   2.314   0.741 -0.0240 -0.0807 -0.0753
    1WF      WF68103  28.743  17.636   7.302  0.2342 -0.0475  0.0525
    1WF      WF68104  24.579   3.632   0.777  0.0605  0.1919  0.4243
    1WF      WF68105   0.109  28.541   8.173 -0.0512  0.1808  0.2132
    1WF      WF68106  28.593  20.298   8.724 -0.0295  0.0040  0.3189
    1WF      WF68107  28.886   3.948   0.884 -0.0252  0.0601  0.0738
    1WF      WF68108  15.444  15.288   0.520  0.0651 -0.1776  0.2182
    1WF      WF68109  22.974  17.911   8.950  0.1284 -0.0651  0.4216
    1WF      WF68110  13.546   1.458   0.027  0.1379 -0.3135 -0.0244
    1WF      WF68111  14.334  10.259   0.962 -0.0866 -0.4732  0.1127
    1WF      WF68112  13.477   9.296   6.961  0.3523  0.0463  0.0659
    1WF      WF68113  20.240  15.771   1.175 -0.1008  0.0738 -0.0868
    1WF      WF68114   8.483  20.568   7.133  0.1435  0.0123  0.0628
    1WF      WF68115  10.543   9.887   8.953  0.2936  0.1662 -0.0842
    1WF      WF68116  10.090  18.551   8.386  0.0149 -0.1972 -0.2332
    1WF      WF68117   8.786   5.634   3.061  0.2116 -0.0590  0.4485
    1WF      WF68118   1.112  12.593   1.436 -0.1215 -0.2697 -0.2363
    1WF      WF68119  28.422  25.611   2.478 -0.0226  0.3091  0.1261
    1WF      WF68120   3.227  13.717   1.283  0.4742  0.3236 -0.1018
    1WF      WF68121  19.185   6.304   0.377 -0.1922 -0.0963 -0.0742
    1WF      WF68122  10.984  26.215   2.372  0.0386  0.2739 -0.1605
    1WF      WF68123   8.903   1.358   8.854 -0.2732  0.0471 -0.1458
    1WF      WF68124   5.058  23.229   2.468 -0.1578 -0.0705  0.4648
    1WF      WF68125  20.369   7.043   8.894  0.2818 -0.0809 -0.1191
    1WF      WF68126   8.728   7.147   8.801 -0.2970 -0.0503  0.0173
    1WF      WF68127  26.934  16.543   0.051  0.1526 -0.1134 -0.0519
    1WF      WF68128  21.084  23.053   2.098  0.0507 -0.2589 -0.1207
    1WF      WF68129  19.048   6.066   1.299 -0.0538 -0.1412  0.0479
    1WF      WF68130   3.936   0.999   8.425 -0.1900 -0.0889 -0.3084
    1WF      WF68131  16.895  17.376   8.966  0.3573 -0.0269  0.0228
    1WF      WF68132   2.745   5.232   8.907  0.0214  0.2927 -0.1420
    1WF      WF68133  28.763  17.899   1.096 -0.1462  0.4386 -0.0407
    1WF      WF68134  19.075  11.659   8.724 -0.1310  0.0195  0.0411
    1WF      WF68135  25.731  22.813   3.066  0.3111 -0.2386 -0.1328
    1WF      WF68136  23.763   2.935   7.509  0.0494  0.1122  0.4471
    1WF      WF68137  19.845  26.142   0.286  0.3104  0.0689  0.1041
    1WF      WF68138   6.667  17.752   8.925 -0.0523 -0.1457  0.2397
    1WF      WF68139   4.429   5.514   1.844 -0.1831  0.0095 -0.2170
    1WF      WF68140  29.324  25.375   2.138 -0.3447 -0.1822  0.1258
    1WF      WF68141  22.762  23.849   0.430  0.3209  0.0229  0.0097
    1WF      WF68142   8.496  17.268   8.934 -0.3026 -0.2291  0.0320
    1WF      WF68143  13.028  17.300   7.006  0.1285  0.0741  0.3155
    1WF      WF68144  15.590  22.577   9.156 -0.2314 -0.0186 -0.0874
    1WF      WF68145   7.433  15.185   8.452  0.0610  0.2292  0.0247
    1WF      WF68146   2.167  11.557   8.382 -0.2081 -0.1571 -0.0707
    1WF      WF68147  25.669  10.953   5.737 -0.0581  0.1023  0.2430
    1WF      WF68148  19.323   5.690   1.233  0.0821  0.2748 -0.0461
    1WF      WF68149   7.205  11.085   8.611 -0.1398 -0.0923 -0.0731
    1WF      WF68150  16.289   1.455   7.257 -0.0419 -0.1420 -0.4109
    1WF      WF68151  13.082  19.245   8.409 -0.2065  0.0183  0.3028
    1WF      WF68152  23.436  28.262   0.364 -0.0690  0.0092 -0.0475
    1WF      WF68153   8.163  11.130   1.849  0.1848 -0.0431 -0.0103
    1WF      WF68154  17.483  21.497   7.422  0.0321 -0.1116  0.1057
    1WF      WF68155   1.034  21.055   2.245  0.1718 -0.3548  0.2467
    1WF      WF68156   7.305  10.838   2.963  0.0099  0.1898 -0.3449
    1WF      WF68157   9.098  18.152   8.558 -0.0173 -0.0330  0.3286
    1WF      WF68158  25.811  20.565   0.691  0.1750  0.1635  0.0115
    1WF      WF68159  10.873  11.157   2.218  0.0700  0.2597  0.0495
    1WF      WF68160   0.955  26.424   9.106  0.3303 -0.1023 -0.0308
    1WF      WF68161   3.785  23.043   7.589 -0.0385  0.3104 -0.2539
    1WF      WF68162   2.645  17.555   1.542  0.2992 -0.1789 -0.2094
    1WF      WF68163  15.554   9.069   6.502  0.1729  0.0244 -0.2257
    1WF      WF68164  12.203   2.822   7.365  0.0604  0.1879  0.1932
    1WF      WF68165   6.652  16.649   0.876 -0.0579 -0.0367 -0.1020
    1WF      WF68166  23.552  10.618   7.798  0.1167  0.1441 -0.1389
    1WF      WF68167  17.792  10.273   0.910 -0.2302 -0.1152  0.0547
    1WF      WF68168   5.469  13.128   6.932  0.2095  0.2180  0.0002
    1WF      WF68169  27.820   8.668   6.166  0.1309 -0.0245 -0.2045
    1WF      WF68170   5.489  21.861   9.453  0.1866  0.2769  0.0908
    1WF      WF68171  15.255   6.645   0.937  0.1890  0.0806  0.2272
    1WF      WF68172  27.188   1.685   0.173 -0.1954 -0.1436 -0.1011
    1WF      WF68173  10.552  14.155   0.394  0.1842 -0.1895 -0.3017
    1WF      WF68174  25.488  23.133   0.739  0.1952  0.1055 -0.0282
    1WF      WF68175  21.195  28.580   1.808 -0.1850 -0.0157 -0.3153
    1WF      WF68176  13.988   3.081   3.862 -0.4104 -0.2181 -0.1981
    1WF      WF68177   1.561  18.155   1.523 -0.0906  0.1062 -0.0035
    1WF      WF68178   8.928  17.274   9.334 -0.0059  0.1423  0.0350
    1WF      WF68179  19.768   0.858   1.897  0.1322  0.1042  0.1376
    1WF      WF68180  22.794  27.958   8.287  0.0018  0.2020 -0.4293
    1WF      WF68181   2.920  12.809   8.806 -0.0171 -0.1393  0.2005
    1WF      WF68182  24.803   5.959   8.075  0.3162  0.2468 -0.1093
    1WF      WF68183  18.770   8.576   8.994 -0.1608  0.1703 -0.2737
    1WF      WF68184   7.769   4.065   0.206  0.0552  0.0078 -0.1878
    1WF      WF68185  28.183  12.328   8.881 -0.2113 -0.1409 -0.2640
    1WF      WF68186   6.668  16.859   7.138 -0.1284  0.1993  0.0420
    1WF      WF68187   9.117   2.143   2.848  0.1456 -0.5262 -0.2451
    1WF      WF68188  23.436   3.303   1.999 -0.1626 -0.0867 -0.0951
    1WF      WF68189  29.262  12.577   7.241  0.0170  0.1231 -0.1069
    1WF      WF68190  21.210   3.335   8.589  0.1493 -0.2379 -0.1375
    1WF      WF68191  11.050  25.496   7.944  0.3683 -0.0011 -0.2033
    1WF      WF68192  24.803  25.971   8.567  0.0383 -0.1400  0.0698
    1WF      WF68193  22.045  13.245   0.322  0.2261  0.1560 -0.0814
    1WF      WF68194   1.467   6.606   0.960  0.0986 -0.1144 -0.1049
    1WF      WF68195  18.246   4.940   0.824 -0.0395 -0.0863 -0.0707
    1WF      WF68196   4.244   4.759   0.177  0.0939 -0.0349  0.2199
    1WF      WF68197  15.737  29.621   9.209 -0.3016  0.3782 -0.1769
    1WF      WF68198  19.888  22.303   1.977 -0.0165 -0.1076 -0.2435
    1WF      WF68199   9.389  15.337   0.742  0.2404  0.1495  0.1112
    1WF      WF68200   3.813  19.269   9.115  0.1867  0.1508 -0.2092
    1WF      WF68201   1.365  18.671   1.576  0.2657  0.0659  0.0099
    1WF      WF68202  26.872  10.812   0.261 -0.1394 -0.1256  0.1173
    1WF      WF68203  20.119   7.222   7.950 -0.1999 -0.0766  0.2247
    1WF      WF68204  23.164   7.378   0.472  0.0990  0.2453  0.0587
    1WF      WF68205  26.063  24.412   9.036  0.1840  0.1659 -0.0345
    1WF      WF68206   9.066  17.899   8.042  0.1450 -0.0890 -0.1982
    1WF      WF68207  29.134  11.281   1.133  0.0507  0.1282  0.1456
    1WF      WF68208  25.820  15.543   5.903 -0.1080  0.0767 -0.1661
    1WF      WF68209  13.752   2.615   7.173  0.2428  0.2551  0.0820
    1WF      WF68210  23.353   0.484   8.953  0.3024  0.1180 -0.0413
    1WF      WF68211  27.684  20.274   2.178 -0.2549 -0.1857 -0.3135
    1WF      WF68212   9.285   6.299   4.193  0.1025  0.1410 -0.4170
    1WF      WF68213  28.953  11.513   2.093 -0.0516  0.1899  0.2699
    1WF      WF68214   2.870   2.376   1.466  0.0264 -0.2341 -0.0464
    1WF      WF68215  23.353  14.244   6.651 -0.0341  0.0076 -0.0700
    1WF      WF68216  24.474  26.793   8.503  0.0538  0.1075 -0.0651
    1WF      WF68217  21.034  11.234   8.102  0.0974 -0.3869 -0.0875
    1WF      WF68218   1.156  21.057   0.625  0.2185  0.2074  0.1644
    1WF      WF68219   5.840  15.098   8.469 -0.1313 -0.0338  0.0535
    1WF      WF68220  16.931  14.443   8.898  0.1292 -0.0363  0.0583
    1WF      WF68221  23.124  22.837   3.182 -0.0179 -0.2980  0.0389
    1WF      WF68222  16.308  24.173   9.129 -0.0180 -0.0434  0.0784
    1WF      WF68223  27.433   3.594   8.108  0.0030  0.5289  0.2878
    1WF      WF68224   1.507   3.145   8.726  0.2433 -0.1025 -0.0340
    1WF      WF68225   2.509   0.313   8.882  0.4062 -0.2069 -0.0829
    1WF      WF68226  17.001  21.789   8.479  0.3745 -0.3277  0.1389
    1WF      WF68227   5.138  16.404   7.567 -0.0656 -0.1606  0.1243
    1WF      WF68228  22.664   7.088   1.715  0.1034 -0.1968  0.0456
    1WF      WF68229  23.279  19.087   6.841 -0.3925 -0.0372  0.2312
    1WF      WF68230   7.442   4.474   1.570 -0.2207  0.2276  0.2585
    1WF      WF68231   1.389  17.794   8.940 -0.1657 -0.1425 -0.2875
    1WF      WF68232  27.137  18.604   7.008  0.1130 -0.0304  0.0252
    1WF      WF68233  18.411   2.287   1.034 -0.3516  0.0330  0.1249
    1WF      WF68234  16.462  11.519   0.083  0.0885 -0.0337  0.1690
    1WF      WF68235  17.618  10.605   6.976  0.1866  0.0854  0.0934
    1WF      WF68236  21.944  29.783   6.897 -0.1748 -0.1844  0.0517
    1WF      WF68237  25.330  29.197   1.405  0.1007 -0.0160  0.3190
    1WF      WF68238   5.417  23.103   7.456  0.0690  0.1663  0.4486
    1WF      WF68239  12.295  27.724   8.149  0.4153  0.3647 -0.1820
    1WF      WF68240  12.419   0.256   9.266  0.0038 -0.2456 -0.2993
    1WF      WF68241  21.354  22.755   7.282 -0.2475 -0.3261 -0.1050
    1WF      WF68242  16.039   2.969   0.627  0.1506 -0.2036  0.1726
    1WF      WF68243  23.134  25.282   3.265 -0.1527  0.0581  0.2183
    1WF      WF68244  11.257  24.227   6.769 -0.2721  0.0476 -0.1275
    1WF      WF68245   0.955   3.476   8.118  0.1521 -0.0194  0.0554
    1WF      WF68246  17.827  24.044   8.550 -0.2339  0.0563 -0.0149
    1WF      WF68247  27.732   8.274   0.159 -0.0491  0.4414  0.0656
    1WF      WF68248  12.150   3.368   4.024 -0.2492 -0.1161 -0.0067
    1WF      WF68249  18.507   3.940   1.318 -0.1519  0.0648 -0.1765
    1WF      WF68250  25.651  25.428   1.612  0.0878 -0.2691 -0.1910
    1WF      WF68251  15.416  28.020   2.317 -0.0441  0.0601  0.0260
    1WF      WF68252   0.326   7.198   1.553 -0.2186 -0.0020  0.0546
    1WF      WF68253   0.765   0.360   7.161  0.0682 -0.0404  0.1646
    1WF      WF68254  17.764  13.638   0.606  0.1885 -0.1962  0.0018
    1WF      WF68255   8.492  25.350   0.212 -0.0615 -0.0512  0.0178
    1WF      WF68256  25.994  25.459   7.277 -0.1037  0.3494  0.1776
    1WF      WF68257   2.429  25.540   7.944 -0.0472  0.0100  0.2897
    1WF      WF68258  13.711  28.608   0.959  0.0398 -0.1565 -0.0145
    1WF      WF68259   9.969  29.680   2.502 -0.1136 -0.1294 -0.0303
    1WF      WF68260  20.492  19.206   1.580  0.1822 -0.1017  0.1723
    1WF      WF68261  23.087   3.303   7.135  0.1689 -0.1867  0.2683
    1WF      WF68262  11.991  18.150   0.649  0.3956 -0.0486 -0.0577
    1WF      WF68263  29.732   1.148   8.370 -0.1287  0.1957  0.2307
    1WF      WF68264  28.113  28.692   0.653  0.4809 -0.2913 -0.0775
    1WF      WF68265   2.801   4.120   2.413  0.0020 -0.0023 -0.0587
    1WF      WF68266   0.910   5.621   3.448  0.0681  0.0501  0.1858
    1WF      WF68267   6.852   6.050   8.967  0.0264 -0.0435  0.1692
    1WF      WF68268  20.678  12.480   7.231 -0.2512 -0.3057 -0.2110
    1WF      WF68269   3.151  23.309   0.939  0.0021  0.3306  0.1588
    1WF      WF68270  22.914  10.978   6.489 -0.0413 -0.0731  0.1628
    1WF      WF68271  19.429  13.613   7.607 -0.1268 -0.2187 -0.0209
    1WF      WF68272   1.888  19.275   7.807 -0.2171 -0.1047 -0.0859
    1WF      WF68273  14.684  26.884   0.277 -0.0392 -0.0459  0.3847
    1WF      WF68274  21.162  24.190   1.776  0.1953  0.1490  0.2116
    1WF      WF68275  22.645   7.742   7.214 -0.0443  0.0591 -0.1188
    1WF      WF68276  12.237  23.255   7.624 -0.0073  0.0277 -0.0040
    1WF      WF68277  23.364  24.217   0.339  0.1665 -0.3685  0.0544
    1WF      WF68278  23.406   9.340   6.177  0.0823  0.1002 -0.0658
    1WF      WF68279  20.158  26.738   3.327 -0.0643 -0.4232 -0.1175
    1WF      WF68280  29.063  27.838   8.367  0.0672 -0.0736 -0.1905
    1WF      WF68281  16.060  26.322   2.517  0.2569 -0.4327  0.2727
    1WF      WF68282  15.429   8.282   9.067 -0.0934  0.1657 -0.1632
    1WF      WF68283   0.911   8.898   8.985  0.1534 -0.0437  0.2167
    1WF      WF68284  22.275  14.296   0.787  0.0455  0.1317 -0.0232
    1WF      WF68285  16.686  17.199   1.221 -0.1533  0.2868 -0.0340
    1WF      WF68286  20.244   0.159   0.514 -0.0251 -0.1504  0.3918
    1WF      WF68287  13.771  14.732   9.126 -0.1340  0.1634  0.4358
    1WF      WF68288   5.620   9.488   1.480  0.0109 -0.2455  0.3312
    1WF      WF68289   7.502   6.574   1.087 -0.0196 -0.1641 -0.0499
    1WF      WF68290  27.902  16.729   1.021 -0.1785  0.0532  0.2009
    1WF      WF68291   7.310  13.343   0.639  0.0147  0.2113 -0.0486
    1WF      WF68292   1.485   9.136   0.498  0.1780 -0.1115  0.3067
    1WF      WF68293   2.009  20.323   7.928  0.3126  0.3243  0.1024
    1WF      WF68294   9.447  10.881   7.174 -0.3088  0.1037 -0.0771
    1WF      WF68295  19.934  13.775   7.612 -0.0416 -0.0060  0.0181
    1WF      WF68296  27.378   4.553   0.720  0.3121  0.2145 -0.0536
    1WF      WF68297  16.596   6.442   8.017  0.1326  0.3348  0.0898
    1WF      WF68298   9.503  19.119   0.605 -0.2715  0.1594 -0.1611
    1WF      WF68299  10.172   6.412   0.064 -0.1754 -0.0980  0.0984
    1WF      WF68300  22.118   3.385   1.713 -0.1211  0.0350 -0.2327
    1WF      WF68301  21.449  20.139   3.278  0.2384  0.2841  0.1042
    1WF      WF68302   9.570  12.184   0.221 -0.2591  0.2622  0.1687
    1WF      WF68303  12.149  29.207   0.455 -0.1151 -0.0028 -0.2088
    1WF      WF68304   9.651  25.311   2.477  0.1213  0.2182 -0.0306
    1WF      WF68305   6.655  24.447   8.361 -0.0959 -0.1220  0.3443
    1WF      WF68306  13.705  25.345   0.698  0.2240  0.5423 -0.1366
    1WF      WF68307  23.139  20.693   9.036 -0.1333 -0.1071  0.2399
    1WF      WF68308   5.345  21.069   7.246  0.0552  0.2308  0.2311
    1WF      WF68309  13.538  19.511   1.259  0.0885 -0.0076 -0.0685
    1WF      WF68310  23.191  22.225   6.749  0.3713 -0.1374  0.1057
    1WF      WF68311   3.951   2.003   1.032 -0.0169 -0.3999  0.0482
    1WF      WF68312  10.118  16.098   0.658  0.2052  0.2344 -0.0899
    1WF      WF68313  20.768   4.747   9.179 -0.3860  0.0690 -0.2388
    1WF      WF68314  28.524  28.461   0.902 -0.0590  0.0651  0.0471
    1WF      WF68315  13.198   8.204   2.231 -0.0119  0.0570 -0.1921
    1WF      WF68316  22.594  18.639   0.922 -0.1819  0.1333 -0.0859
    1WF      WF68317  17.530  19.417   8.837  0.0226 -0.1747  0.1298
    1WF      WF68318  19.660  20.750   8.160  0.2437  0.0024 -0.0614
    1WF      WF68319  12.414   2.996   1.628  0.1360  0.0958 -0.2684
    1WF      WF68320  14.264  10.783   1.084 -0.2374 -0.2427  0.2681
    1WF      WF68321  14.869  19.096   0.470 -0.1898 -0.0509  0.0417
    1WF      WF68322  26.177  18.442   9.279  0.0245  0.3143 -0.1223
    1WF      WF68323  14.480   0.621   1.982  0.0066  0.0044 -0.4211
    1WF      WF68324   5.195  24.533   0.111 -0.1127  0.2551 -0.0406
    1WF      WF68325  14.516  17.392   6.410  0.1560 -0.3758 -0.2325
    1WF      WF68326  22.918  14.788   8.956  0.0265 -0.0118  0.1693
    1WF      WF68327  21.146   2.019   7.828  0.1293 -0.3917  0.0542
    1WF      WF68328   9.175   6.587   2.412  0.2079  0.0492 -0.1502
    1WF      WF68329  13.652   2.758   3.618 -0.3181  0.1148  0.2892
    1WF      WF68330  23.044   6.314   6.794  0.1881 -0.0132 -0.0623
    1WF      WF68331   7.198  27.237   7.951 -0.0904  0.0489 -0.1764
    1WF      WF68332  19.840   7.297   0.803 -0.1350 -0.0739 -0.1897
    1WF      WF68333  21.180  18.138   9.057  0.0903 -0.0564 -0.2011
    1WF      WF68334  14.563  29.173   1.299  0.0483  0.0007  0.0752
    1WF      WF68335   6.233  19.646   8.107  0.0974  0.0572  0.0669
    1WF      WF68336  25.349  23.118   7.939 -0.0125 -0.1467  0.1974
    1WF      WF68337   1.829   5.138   1.055  0.0500  0.3946 -0.0466
    1WF      WF68338   3.351  24.569   5.533 -0.2260 -0.0201  0.5363
    1WF      WF68339   6.951   4.360   7.064  0.4277  0.0022  0.0616
    1WF      WF68340   9.956  11.966   0.004  0.1668 -0.3886  0.1572
    1WF      WF68341   8.087   1.332   1.376  0.0959 -0.1102 -0.0915
    1WF      WF68342  18.816   5.458   7.916  0.1095 -0.1165  0.0844
    1WF      WF68343  23.507  22.861   0.235  0.2564 -0.3269 -0.0299
    1WF      WF68344  18.481  21.183   1.477  0.0015  0.0191  0.0252
    1WF      WF68345   0.416  25.688   8.035 -0.2484 -0.0492  0.0097
    1WF      WF68346   8.610  15.372   2.402  0.0997  0.1074  0.2322
    1WF      WF68347   9.981   2.604   7.986  0.2825  0.0906  0.1059
    1WF      WF68348   2.417  14.081   1.212  0.1408  0.4027  0.1500
    1WF      WF68349  25.588  21.649   0.270 -0.0695 -0.4518  0.0027
    1WF      WF68350   2.604  15.640   9.344  0.1574  0.2045 -0.2844
    1WF      WF68351   9.307  12.962   1.412 -0.0436  0.3305  0.2147
    1WF      WF68352   0.127  10.078   0.651 -0.0765  0.3163 -0.3399
    1WF      WF68353   9.863  28.269   9.339  0.2890  0.1230  0.0246
    1WF      WF68354   2.042   2.531   9.301 -0.0036 -0.4902 -0.1193
    1WF      WF68355  29.101  21.978   0.906 -0.3119 -0.1519  0.0530
    1WF      WF68356  26.238  22.552   1.208 -0.1357 -0.1792 -0.0788
    1WF      WF68357  21.804  23.909   1.122 -0.0124 -0.1632 -0.0912
    1WF      WF68358  16.275  17.157   2.672  0.2283  0.0285  0.0897
    1WF      WF68359  19.392  13.511   8.579 -0.1968 -0.0042  0.2394
    1WF      WF68360   0.647  27.891   8.061  0.0890  0.2000  0.3028
    1WF      WF68361   8.234   0.767   9.213  0.0277  0.1839  0.1344
    1WF      WF68362  18.843  13.410   7.753 -0.0666 -0.1491  0.1230
    1WF      WF68363   4.196  19.437   0.828 -0.0445 -0.2136  0.1931
    1WF      WF68364  22.815  24.942   3.073  0.3457  0.3333 -0.2010
    1WF      WF68365   6.627  23.856   9.099  0.1209 -0.5255 -0.2156
    1WF      WF68366  28.963  23.805   3.154  0.1244 -0.0684 -0.1387
    1WF      WF68367  23.533   1.641   7.877 -0.1753  0.0273 -0.2110
    1WF      WF68368   0.869  29.334   1.674  0.1959 -0.1298  0.3482
    1WF      WF68369   1.888  27.317   7.660 -0.1313 -0.0376 -0.0845
    1WF      WF68370  19.151  26.950   9.402 -0.2064  0.0510  0.0130
    1WF      WF68371  17.661  20.575   1.337  0.0488  0.3130  0.0918
    1WF      WF68372   7.883  24.140   1.331  0.1193  0.1548  0.1980
    1WF      WF68373   6.933   3.643   8.891 -0.2171  0.4449 -0.3348
    1WF      WF68374   0.983   7.799   7.741  0.3196 -0.0988  0.0768
    1WF      WF68375  23.470   4.257   0.658  0.0480  0.0376  0.0905
    1WF      WF68376  13.183   0.276   3.679 -0.2817  0.0542  0.0793
    1WF      WF68377  25.823  24.031   8.915  0.2072  0.1941  0.0130
    1WF      WF68378   3.978  17.860   2.159 -0.1244  0.2240  0.1989
    1WF      WF68379  14.477   1.860   1.386 -0.0881  0.0263 -0.1247
    1WF      WF68380   3.694  29.393   7.332  0.1763 -0.2041 -0.4483
    1WF      WF68381   7.309   3.321   8.785 -0.0642  0.1964 -0.2294
    1WF      WF68382   6.599  13.103   1.048  0.0145  0.1986  0.3436
    1WF      WF68383   3.527  20.810   2.547  0.0150 -0.1271 -0.2595
    1WF      WF68384  20.535  21.696   0.898 -0.0054 -0.3509 -0.0924
    1WF      WF68385  26.792  17.793   1.337 -0.0654 -0.0632 -0.1754
    1WF      WF68386  22.980  22.359   1.606  0.1222  0.1768  0.1599
    1WF      WF68387   8.652  13.816   8.509 -0.0034  0.1223  0.1892
    1WF      WF68388   7.401  21.032   0.213  0.0586  0.0170 -0.1423
    1WF      WF68389  25.155  23.614   7.940 -0.0193  0.2145  0.0435
    1WF      WF68390  15.615  29.165   9.079  0.0802 -0.0036 -0.3396
    1WF      WF68391   6.792  11.253   0.071  0.0359  0.2682  0.0698
    1WF      WF68392  13.803   3.499   3.583 -0.3276  0.2124 -0.1744
    1WF      WF68393  29.609  17.725   9.199  0.0892 -0.0080 -0.1256
    1WF      WF68394   6.385  23.401   9.216  0.0984  0.0989 -0.0299
    1WF      WF68395  27.200  19.147   7.062  0.0383 -0.0330  0.3208
    1WF      WF68396  19.569  18.247   9.083 -0.2095  0.2463  0.0270
    1WF      WF68397  23.927   0.015   0.048  0.1566  0.4474 -0.0523
    1WF      WF68398  25.413  29.758   0.335 -0.1491  0.3832  0.1621
    1WF      WF68399   4.029  20.504   6.503  0.0802 -0.0321 -0.0170
    1WF      WF68400   7.285  12.298   1.811  0.0411 -0.0814 -0.0930
    1WF      WF68401   6.521  17.138   1.273  0.2617  0.0008 -0.1159
    1WF      WF68402   9.006  20.399   2.291  0.0623  0.0300  0.1269
    1WF      WF68403  12.790  28.249   0.346  0.1634  0.0134  0.1266
    1WF      WF68404  27.940  14.423   0.712 -0.0351  0.1321 -0.0334
    1WF      WF68405  29.796   8.503   1.923  0.0310  0.0745 -0.0191
    1WF      WF68406  16.862   1.080   2.337  0.0462 -0.1334 -0.0276
    1WF      WF68407   4.480   3.954   2.155 -0.0803  0.0472 -0.0594
    1WF      WF68408  23.028  20.325   0.341  0.1363 -0.2467 -0.0554
    1WF      WF68409  12.486  24.459   8.383 -0.1337 -0.0224 -0.0545
    1WF      WF68410   8.622  24.840   0.320 -0.1536 -0.0155  0.0192
    1WF      WF68411  18.930  11.344   7.478  0.0955 -0.4618  0.1004
    1WF      WF68412   6.237  16.733   1.090 -0.2523 -0.0304 -0.1643
    1WF      WF68413   8.203   3.011   3.124  0.0538  0.1729  0.2251
    1WF      WF68414   6.748   1.894   1.246  0.1302 -0.1183  0.0122
    1WF      WF68415  12.871  26.909   1.477  0.0602 -0.1599 -0.0800
    1WF      WF68416   0.661  28.164   0.422  0.3081  0.2153  0.1093
    1WF      WF68417  11.483  26.032   1.328  0.0967  0.0869 -0.0053
    1WF      WF68418   3.449   7.639   0.364  0.0233  0.1792 -0.2383
    1WF      WF68419  26.992  26.213   1.960 -0.0684 -0.1107 -0.2282
    1WF      WF68420  25.608  13.978   5.979 -0.1307  0.1191  0.0555
    1WF      WF68421  13.425  20.006   1.264 -0.0920 -0.1024 -0.1734
    1WF      WF68422  21.910  24.687   8.474 -0.0492  0.3960 -0.2075
    1WF      WF68423   2.447  20.693   1.590 -0.1659 -0.3293 -0.2171
    1WF      WF68424  14.752  10.055   0.429 -0.0176  0.0868  0.1974
    1WF      WF68425   7.076   1.568   1.551  0.0682 -0.1405 -0.3442
    1WF      WF68426  22.297  25.321   1.273  0.0334  0.1325 -0.1671
    1WF      WF68427  16.024  23.242   0.773  0.1973 -0.0573  0.2216
    1WF      WF68428   9.166  28.498   7.357 -0.0664 -0.0367  0.0912
    1WF      WF68429   7.207  11.739   1.907 -0.0937  0.1497 -0.1551
    1WF      WF68430  12.312  22.792   7.485  0.2259  0.1362 -0.0983
    1WF      WF68431   9.734  13.820   1.468 -0.1882  0.0839  0.1358
    1WF      WF68432  10.658   5.224   8.529  0.1425  0.1339 -0.1967
    1WF      WF68433  20.562  12.664   7.717 -0.2670  0.2142  0.1005
    1WF      WF68434   7.026  17.425   8.864  0.0610  0.0979  0.1750
    1WF      WF68435  12.165   5.795   8.036  0.0565 -0.0145 -0.3505
    1WF      WF68436  27.403   3.389   0.248 -0.1359  0.1745  0.0069
    1WF      WF68437  24.194  20.208   7.724 -0.4132  0.1838  0.1438
    1WF      WF68438  11.533   3.043   1.764  0.2118 -0.0417  0.1038
    1WF      WF68439  25.255   7.994   7.433  0.0566  0.5501  0.0510
    1WF      WF68440  20.801  24.295   2.108  0.1270 -0.1185  0.1327
    1WF      WF68441  28.139  11.896   0.667  0.3622 -0.0222  0.0521
    1WF      WF68442  22.185  20.387   0.453 -0.2473 -0.1393  0.0246
    1WF      WF68443  16.531   6.266   1.001  0.0959  0.0452 -0.1380
    1WF      WF68444  12.682  24.039   7.343  0.2619 -0.0943  0.1314
    1WF      WF68445   0.654   8.835   8.585  0.3183  0.1720  0.3681
    1WF      WF68446   0.591   3.872   0.234  0.0877 -0.3908 -0.1081
    1WF      WF68447   0.786   3.402   0.211  0.1119 -0.1934  0.0163
    1WF      WF68448  18.440  29.687   1.353 -0.0983 -0.3282  0.0737
    1WF      WF68449   3.491   0.733   8.328 -0.1699  0.1209 -0.0434
    1WF      WF68450  18.645  11.016   7.245  0.0391 -0.0469 -0.0024
    1WF      WF68451   6.486  24.230   8.795  0.0488 -0.0155  0.3623
    1WF      WF68452   8.912  29.229   1.147 -0.0876 -0.1674  0.1410
    1WF      WF68453  14.499  26.103   3.298  0.0718 -0.0712  0.1386
    1WF      WF68454  18.006  12.033   7.213 -0.0104  0.1331  0.1078
    1WF      WF68455  24.233  27.507   1.121 -0.0409  0.3053  0.0043
    1WF      WF68456  20.999  14.391   6.076  0.2910 -0.2685 -0.2258
    1WF      WF68457  22.964  13.609   7.806 -0.0263  0.0225 -0.0076
    1WF      WF68458   0.508  28.749   7.935  0.1007 -0.3059 -0.0017
    1WF      WF68459  22.835   6.047   6.304 -0.1544  0.1674 -0.3233
    1WF      WF68460   2.916  15.099   7.861 -0.0519 -0.0128 -0.1431
    1WF      WF68461   3.375  17.157   5.655 -0.0276 -0.0755 -0.0950
    1WF      WF68462  27.053   8.657   1.014  0.0890  0.0882 -0.0836
    1WF      WF68463  17.506  12.035   7.465  0.1691 -0.2314 -0.2821
    1WF      WF68464   5.714  28.168   7.833 -0.1045 -0.0943 -0.2441
    1WF      WF68465  10.268   2.463   7.559 -0.1104 -0.2887  0.2230
    1WF      WF68466   5.105   6.724   1.913 -0.3557 -0.0872  0.1175
    1WF      WF68467   5.690  20.054   0.563  0.1101 -0.1614 -0.0608
    1WF      WF68468  25.699  15.184   8.212 -0.0097 -0.0281  0.0037
    1WF      WF68469  25.691  28.851   1.097 -0.0721  0.0441 -0.3217
    1WF      WF68470   6.151  20.090   8.505 -0.1431  0.2893 -0.3407
    1WF      WF68471  20.880   7.068   1.334  0.3239 -0.2584 -0.0080
    1WF      WF68472  26.863   1.357   9.398  0.3561 -0.0276 -0.3701
    1WF      WF68473   3.241  16.953   8.560  0.2218  0.1520 -0.4145
    1WF      WF68474  22.387   2.419   9.039 -0.2147 -0.0367 -0.1727
    1WF      WF68475  15.038   1.346   9.417 -0.2826  0.2516 -0.2698
    1WF      WF68476  15.614  25.374   1.154 -0.2019 -0.0577  0.0813
    1WF      WF68477   7.078   4.293   7.568 -0.2489 -0.1739  0.2478
    1WF      WF68478  16.613   8.709   8.058 -0.0373  0.2752 -0.0953
    1WF      WF68479   0.449   5.316   9.171 -0.2174  0.0230 -0.3917
    1WF      WF68480   5.355  17.793   6.390 -0.2271 -0.0122  0.1101
    1WF      WF68481   6.446   1.554   0.914  0.0720 -0.1228 -0.0224
    1WF      WF68482  16.817  10.087   6.152 -0.0544 -0.0212 -0.2403
    1WF      WF68483  10.559  23.748   8.207  0.1018 -0.1519 -0.0940
    1WF      WF68484  27.548  19.228   8.317  0.0431  0.2538  0.1315
    1WF      WF68485   8.881   8.907   9.005  0.0938  0.0703 -0.2326
    1WF      WF68486   7.459  10.806   8.234 -0.0557 -0.1572 -0.4341
    1WF      WF68487  27.104  16.335   0.477  0.0655 -0.1093  0.0308
    1WF      WF68488  22.357   7.698   8.494  0.1606  0.2526  0.0418
    1WF      WF68489   3.548   9.602   7.890  0.0017 -0.1099 -0.3819
    1WF      WF68490  17.279   4.772   1.535  0.2379  0.2090  0.3349
    1WF      WF68491  10.268   6.208   3.607  0.1289  0.0174  0.2052
    1WF      WF68492   0.825  16.135   7.933  0.0068 -0.0868 -0.0933
    1WF      WF68493   4.315  17.081   0.388  0.4464  0.0702 -0.2600
    1WF      WF68494  15.277   3.559   0.012  0.3012  0.2750  0.0688
    1WF      WF68495   3.221   9.391   7.022 -0.0589 -0.1810  0.0591
    1WF      WF68496  23.166   4.619   0.497  0.0289 -0.1680 -0.0569
    1WF      WF68497  11.057  28.681   8.929  0.1286  0.0662  0.0024
    1WF      WF68498  13.534   7.810   2.091 -0.0382  0.3892 -0.0160
    1WF      WF68499  10.874  15.434   1.924 -0.2640 -0.3929 -0.0893
    1WF      WF68500   4.938  26.773   7.448 -0.0478  0.1483  0.1186
    1WF      WF68501  23.548   5.908   0.781 -0.0864  0.0280  0.0996
    1WF      WF68502  18.700  15.922   7.449  0.1831 -0.0736 -0.0609
    1WF      WF68503   1.449   3.959   1.123  0.1448 -0.1002  0.1197
    1WF      WF68504  24.212  24.682   1.553 -0.2416  0.0639 -0.1479
    1WF      WF68505  28.670   0.304   7.534 -0.2063 -0.0358  0.0800
    1WF      WF68506  26.274  20.516   7.469  0.2597  0.0471 -0.0006
    1WF      WF68507   2.370  20.491   7.641 -0.1455 -0.1893 -0.1769
    1WF      WF68508  25.811  29.532   9.437 -0.0303 -0.1982  0.3520
    1WF      WF68509  10.154  29.777   8.994 -0.1388 -0.1255  0.1130
    1WF      WF68510  20.651  28.659   8.132 -0.0044  0.2184 -0.1708
    1WF      WF68511   5.135  19.673   9.312 -0.0566  0.0809  0.0582
    1WF      WF68512  22.018  21.097   2.273 -0.3240 -0.3686 -0.0564
    1WF      WF68513  26.685  14.704   0.250  0.3536 -0.2144 -0.0657
    1WF      WF68514  12.955   0.476   2.055 -0.0799 -0.0304 -0.1603
    1WF      WF68515  28.190   8.627   0.290 -0.0079  0.0512 -0.0429
    1WF      WF68516  10.933  23.292   6.674 -0.0304  0.2676  0.1833
    1WF      WF68517  24.947   2.557   8.379 -0.0551 -0.1621 -0.0425
    1WF      WF68518  26.230  20.448   8.081  0.2598 -0.1360  0.0413
    1WF      WF68519  27.347  22.730   0.847 -0.0513  0.0307  0.0866
    1WF      WF68520  11.826   0.194   8.117 -0.3056  0.1389 -0.2312
    1WF      WF68521   9.478   4.360   3.187 -0.0029  0.0814 -0.3527
    1WF      WF68522  14.775  13.105   1.985 -0.0843 -0.1661  0.1993
    1WF      WF68523   5.140  21.643   7.154 -0.0486 -0.0268 -0.0012
    1WF      WF68524  16.984  12.998   0.022  0.0566 -0.0899 -0.2035
    1WF      WF68525   0.929   4.894   0.653 -0.0799 -0.3676  0.1070
    1WF      WF68526  29.235   6.542   8.775 -0.1729 -0.0624  0.1296
    1WF      WF68527  19.781   7.055   1.259 -0.3034 -0.0400  0.0437
    1WF      WF68528  14.748   2.563   3.712  0.0395  0.1982 -0.2771
    1WF      WF68529  11.602  29.736   2.099  0.3197 -0.3640 -0.1016
    1WF      WF68530   7.955   3.520   2.100 -0.1770  0.1507  0.1589
    1WF      WF68531  10.399   4.190   2.294 -0.1162  0.0549 -0.2980
    1WF      WF68532   4.623  16.328   7.525  0.0716  0.2473  0.2142
    1WF      WF68533   7.044  28.004   1.020  0.2170  0.1258  0.0224
    1WF      WF68534  23.017   3.717   1.686  0.1442 -0.1243  0.3523
    1WF      WF68535  15.661   1.708   0.665 -0.3209  0.2113  0.4340
    1WF      WF68536   9.717  14.552   0.013  0.3141  0.2351  0.1216
    1WF      WF68537   3.832  16.037   7.072 -0.0172  0.1397  0.1245
    1WF      WF68538  25.696  11.481   7.903 -0.0229  0.0600  0.0755
    1WF      WF68539  11.260   5.544   0.285 -0.1786 -0.0048  0.2430
    1WF      WF68540  23.447   6.798   8.227  0.1330  0.1081 -0.0822
    1WF      WF68541  23.845   6.980   0.048  0.0316 -0.0834 -0.1995
    1WF      WF68542   0.779  19.907   1.296  0.0856 -0.5420  0.2019
    1WF      WF68543  19.721   0.643   7.774  0.1069 -0.1202 -0.0091
    1WF      WF68544   9.588  10.914   2.381  0.1845 -0.2101  0.0578
    1WF      WF68545   2.766  23.557   1.126  0.1366  0.1445 -0.2578
    1WF      WF68546   2.289  26.757   6.026  0.1098 -0.0634 -0.0403
    1WF      WF68547  11.172  13.668   8.518  0.0255  0.2876 -0.3977
    1WF      WF68548   9.840  22.903   7.776  0.1226 -0.1635 -0.0726
    1WF      WF68549   9.144  22.264   7.919  0.3018  0.2347 -0.1762
    1WF      WF68550  20.267   0.423   0.052  0.3649  0.3050  0.1143
    1WF      WF68551   0.998  15.749   8.351 -0.0987  0.0907 -0.4284
    1WF      WF68552   8.787   4.055   0.889  0.1734  0.0984  0.0944
    1WF      WF68553   3.596  29.174   9.137 -0.2712  0.0280 -0.2077
    1WF      WF68554  18.931  23.190   8.133  0.0191  0.0540 -0.0414
    1WF      WF68555  12.082  26.592   0.365 -0.1737  0.0591 -0.2314
    1WF      WF68556  13.205  24.847   6.695  0.1529  0.1638 -0.3088
    1WF      WF68557  17.306   4.026   5.801 -0.0760 -0.0994 -0.1944
    1WF      WF68558  19.473  12.046   0.400  0.0373 -0.2319  0.1517
    1WF      WF68559   9.954  19.365   8.681  0.2574 -0.0165 -0.1606
    1WF      WF68560   4.530  20.151   8.306 -0.2643  0.1576 -0.0626
    1WF      WF68561  14.529  25.944   0.524  0.0363  0.0420 -0.0685
    1WF      WF68562  22.510  21.328   3.274 -0.0168  0.0751  0.1194
    1WF      WF68563   4.928   4.527   7.731  0.0216  0.2325  0.0642
    1WF      WF68564   6.448  10.934   0.148  0.0315 -0.1467  0.0310
    1WF      WF68565  29.120   5.010   1.848  0.1119 -0.2185 -0.3839
    1WF      WF68566   7.788   3.633   1.131  0.1628  0.1147  0.3311
    1WF      WF68567  17.968  10.098   0.424 -0.1389  0.2325  0.0928
    1WF      WF68568  19.363  26.525   7.753  0.4537  0.0136  0.0201
    1WF      WF68569  27.447  27.199   0.967 -0.0294 -0.0875  0.0796
    1WF      WF68570   2.726   1.960   1.155  0.0773  0.3540  0.1858
    1WF      WF68571  14.892  24.468   1.069  0.0162  0.2859  0.1726
    1WF      WF68572   4.834   5.549   8.837  0.2405 -0.2720  0.0469
    1WF      WF68573  17.193   2.796   6.365 -0.1545  0.1572  0.0967
    1WF      WF68574  12.777  11.017   0.605 -0.3449  0.0489 -0.0139
    1WF      WF68575  25.284  15.449   8.478  0.1475 -0.1727 -0.1792
    1WF      WF68576  10.128  23.710   8.544 -0.0571 -0.0168 -0.2855
    1WF      WF68577  17.387   9.834   1.093 -0.0362 -0.1646  0.0210
    1WF      WF68578  18.862  10.144   0.948 -0.0158 -0.1587  0.3947
    1WF      WF68579   4.999  12.416   0.211  0.1451  0.0950  0.0974
    1WF      WF68580  15.257  12.813   0.616  0.2162  0.3363 -0.1642
    1WF      WF68581  22.054  16.062   8.761 -0.0051  0.0673 -0.0151
    1WF      WF68582   6.496   6.030   0.948 -0.0506  0.1750  0.0374
    1WF      WF68583   3.253  18.756   0.223  0.1566 -0.2637 -0.1136
    1WF      WF68584   9.759  15.540   1.011 -0.2284  0.1194 -0.1321
    1WF      WF68585  24.856  12.460   8.965 -0.2164  0.1458  0.1932
    1WF      WF68586  16.773  28.898   6.642  0.0655  0.2733 -0.2378
    1WF      WF68587  20.579  11.403   8.243 -0.1243  0.4660 -0.2940
    1WF      WF68588  24.395  16.108   0.687 -0.0911 -0.1142  0.0439
    1WF      WF68589  14.142  21.423   6.926 -0.0839  0.2330  0.3083
    1WF      WF68590  27.521   6.465   1.229  0.1379 -0.2511 -0.1321
    1WF      WF68591  19.819  25.588   0.319  0.0901  0.1522 -0.1759
    1WF      WF68592   5.250  22.270   0.444  0.0095 -0.0224 -0.0428
    1WF      WF68593  13.638  26.368   8.183  0.0967 -0.0682  0.0318
    1WF      WF68594   1.615  26.932   7.450  0.2687  0.0581  0.0891
    1WF      WF68595  15.405  18.896   8.098 -0.2501 -0.0710 -0.0339
    1WF      WF68596   1.600   5.682   1.249  0.1248 -0.0557  0.0239
    1WF      WF68597  23.810   0.368   9.199 -0.1298 -0.2003 -0.0984
    1WF      WF68598   5.944  11.099   0.120  0.0600 -0.0350 -0.1542
    1WF      WF68599  22.657  18.788   8.754  0.3854 -0.1866  0.1011
    1WF      WF68600   5.868  28.161   9.401 -0.2329 -0.1236 -0.0574
    1WF      WF68601   5.962   7.653   2.073 -0.2750  0.1133  0.2701
    1WF      WF68602  17.853   2.307   9.030 -0.2772 -0.1775 -0.0113
    1WF      WF68603  21.201   5.145   1.372  0.2736 -0.0394 -0.1913
    1WF      WF68604  12.850  20.921   1.265  0.0501  0.3817 -0.2371
    1WF      WF68605  19.108  27.136   8.920  0.1086 -0.2354  0.0117
    1WF      WF68606  19.367  18.377   1.176 -0.0816  0.0791  0.3223
    1WF      WF68607  13.996   1.030   1.962 -0.1306 -0.0626  0.0562
    1WF      WF68608  22.227  17.082   8.063  0.2536 -0.0443  0.0056
    1WF      WF68609   4.465  28.198   7.896 -0.0036  0.0411 -0.0194
    1WF      WF68610  17.761  15.604   8.037  0.1166  0.2112 -0.3238
    1WF      WF68611  14.954  13.770   9.073  0.1453 -0.0407  0.1712
    1WF      WF68612   9.059  11.809   1.132  0.3976 -0.0917 -0.0189
    1WF      WF68613  25.757  25.359   7.717  0.2819 -0.0701  0.3161
    1WF      WF68614  17.948  15.543   8.493  0.0865  0.0687  0.0226
    1WF      WF68615  11.213  21.946   8.416  0.0032  0.1434 -0.0439
    1WF      WF68616  17.499  25.572   1.216  0.1723 -0.3387 -0.0073
    1WF      WF68617   4.703   8.624   0.511  0.4280 -0.1543  0.1846
    1WF      WF68618   7.449  16.719   7.943 -0.3377  0.1218  0.2092
    1WF      WF68619  27.108  27.177   0.342  0.0372 -0.2264  0.0173
    1WF      WF68620  15.224   8.020   9.438  0.0658  0.0147  0.2342
    1WF      WF68621   0.551   0.436   0.354  0.1773  0.5204 -0.1036
    1WF      WF68622   7.831  20.645   8.496 -0.0391  0.1179 -0.0307
    1WF      WF68623  24.846   8.240   7.375 -0.1081 -0.0127 -0.0783
    1WF      WF68624  28.907  17.327   6.902 -0.2181  0.1486  0.0154
    1WF      WF68625   9.022  23.756   0.247  0.3667 -0.0659 -0.3182
    1WF      WF68626  16.021   4.559   8.631 -0.0987  0.2623 -0.0590
    1WF      WF68627  13.107   7.373   0.554  0.2067  0.0856  0.2380
    1WF      WF68628  17.498  24.136   0.646  0.2165 -0.4061  0.0328
    1WF      WF68629  23.966  20.432   1.056  0.0683 -0.0874 -0.0752
    1WF      WF68630  16.629   5.097   0.908 -0.3858 -0.0281 -0.1013
    1WF      WF68631  10.214  10.080   0.537  0.1773  0.1931  0.3020
    1WF      WF68632  16.568   6.643   0.657  0.0024  0.0355  0.0935
    1WF      WF68633  18.455  26.040   1.238 -0.3695 -0.0341 -0.0799
    1WF      WF68634  23.245  15.240   6.266 -0.1281 -0.3221  0.2921
    1WF      WF68635  14.349  26.415   0.286  0.3539  0.0276  0.0379
    1WF      WF68636   7.969  16.657   7.439 -0.0348 -0.0469  0.2385
    1WF      WF68637   0.819  15.015   8.834  0.3690 -0.1179  0.1284
    1WF      WF68638   1.518  28.463   7.584  0.2026  0.0347 -0.2940
    1WF      WF68639  28.929   5.759   0.352 -0.2044  0.3737 -0.1208
    1WF      WF68640   8.726  22.542   8.044 -0.1772 -0.2346  0.1738
    1WF      WF68641  23.607  13.088   0.937  0.1367  0.1456  0.1099
    1WF      WF68642  28.587  23.018   8.122 -0.2241  0.0368 -0.2363
    1WF      WF68643  21.734  12.337   8.288  0.0931 -0.2889 -0.1677
    1WF      WF68644  27.710  25.143   7.413  0.0311  0.0803 -0.0481
    1WF      WF68645  28.157   5.257   8.737 -0.0056  0.4117  0.0804
    1WF      WF68646  14.211  29.734   6.723 -0.1326  0.3849  0.1505
    1WF      WF68647   5.214   4.635   0.684 -0.0951 -0.3891  0.1218
    1WF      WF68648  20.989  14.642   8.097 -0.1081 -0.0955  0.2039
    1WF      WF68649   4.898   8.423   8.625 -0.0314  0.1223 -0.2452
    1WF      WF68650  23.338  14.547   9.142  0.1792 -0.3578  0.0256
    1WF      WF68651  20.864  23.535   7.879  0.1809  0.1345 -0.3439
    1WF      WF68652  19.623  17.743   9.260 -0.1550  0.2090 -0.0567
    1WF      WF68653  22.552  29.425   0.099 -0.0433  0.1933 -0.0753
    1WF      WF68654  15.645   6.832   8.602  0.0855  0.0569 -0.0726
    1WF      WF68655   5.246   1.387   8.616  0.3892 -0.0359 -0.1644
    1WF      WF68656  12.457   5.057   2.049 -0.2662 -0.1266  0.0632
    1WF      WF68657  14.137  27.040   8.664 -0.2187  0.0329 -0.0088
    1WF      WF68658   8.252  28.542   0.844  0.2913  0.1696 -0.2338
    1WF      WF68659  18.987  11.342   9.139  0.1106 -0.0678  0.1462
    1WF      WF68660  22.990  25.179   7.641  0.1170 -0.1621 -0.2858
    1WF      WF68661  21.314  22.553   1.152 -0.1467  0.1895  0.2991
    1WF      WF68662   2.041  29.030   2.230 -0.0299  0.3496  0.1245
    1WF      WF68663  23.689   8.671   8.570  0.2620 -0.2358  0.1084
    1WF      WF68664   6.912  29.343   1.659  0.2714 -0.1341  0.2571
    1WF      WF68665   9.442  28.141   9.129  0.1618  0.0014 -0.0881
    1WF      WF68666   0.347  19.342   9.085  0.3415 -0.3271  0.2831
    1WF      WF68667  16.523   5.457   7.319 -0.0131 -0.2425  0.1719
    1WF      WF68668   6.065  27.468   6.633 -0.0405 -0.0275  0.0538
    1WF      WF68669   0.335  26.729   8.428 -0.2158  0.1305 -0.1809
    1WF      WF68670   3.918  13.660   2.098  0.2855 -0.0518  0.1138
    1WF      WF68671  20.021  28.220   1.026 -0.2045  0.0088 -0.0278
    1WF      WF68672  21.204   7.433   8.626  0.0101 -0.1936  0.0478
    1WF      WF68673  27.061  25.963   9.395  0.1663  0.1757 -0.0091
    1WF      WF68674  23.056   0.342   2.962 -0.0031 -0.0601 -0.1174
    1WF      WF68675  21.395  24.539   1.361 -0.0997  0.2450 -0.0160
    1WF      WF68676  19.140  13.559   8.150 -0.3115  0.4133  0.2472
    1WF      WF68677   0.129  13.105   7.265 -0.0016  0.2477  0.1414
    1WF      WF68678  11.027  28.317   7.608  0.1607 -0.1819 -0.1315
    1WF      WF68679  23.752  28.564   0.604 -0.1823  0.3119  0.0058
    1WF      WF68680  19.996  16.867   8.167 -0.2423  0.2218 -0.1499
    1WF      WF68681  24.381   0.141   2.384 -0.3098  0.1934 -0.0942
    1WF      WF68682  15.163  29.263   0.011  0.1628 -0.0904 -0.5360
    1WF      WF68683  25.633  26.608   7.527 -0.0426 -0.0051 -0.1319
    1WF      WF68684   7.907  21.703   1.141 -0.2168 -0.0394 -0.0924
    1WF      WF68685  20.628  15.820   0.906 -0.0100  0.0816  0.0480
    1WF      WF68686   6.257  23.291   7.182 -0.0615  0.0396  0.3103
    1WF      WF68687  29.235  17.344   7.267 -0.2118 -0.2100  0.0582
    1WF      WF68688  10.252   4.444   8.883  0.4607 -0.1788 -0.1358
    1WF      WF68689  28.531  13.681   0.737  0.1822 -0.2299  0.1081
    1WF      WF68690  23.096  13.487   0.820  0.0146  0.2362  0.0723
    1WF      WF68691  10.021   1.868   2.361 -0.0603 -0.3350  0.0048
    1WF      WF68692  26.854   1.034   1.425  0.2740 -0.0393  0.0304
    1WF      WF68693  10.857  23.087   2.373 -0.0323  0.2728  0.1926
    1WF      WF68694  15.966  11.707   0.235 -0.1242  0.1566  0.2110
    1WF      WF68695  25.124   6.459   3.548 -0.3967  0.1665  0.0964
    1WF      WF68696  28.943  10.570   6.411 -0.2670 -0.0516 -0.0321
    1WF      WF68697   5.416  26.973   8.152  0.1166  0.0185 -0.3407
    1WF      WF68698  24.014   4.096   1.444 -0.1091 -0.1535 -0.1483
    1WF      WF68699  26.987  14.806   9.268 -0.1788  0.1076 -0.1085
    1WF      WF68700  21.340  24.010   1.314  0.1472 -0.2820 -0.1565
    1WF      WF68701  20.097  25.147   2.510 -0.0449 -0.0519  0.0878
    1WF      WF68702  20.414  24.480   1.230 -0.1756 -0.1857 -0.0178
    1WF      WF68703  26.294   0.472   0.531  0.1806 -0.0420  0.0565
    1WF      WF68704   0.220  29.306   0.252  0.1005  0.3127  0.2593
    1WF      WF68705   6.295  24.874   8.203 -0.1674 -0.2892  0.0021
    1WF      WF68706  10.922  23.206   0.343 -0.1389  0.0883  0.0763
    1WF      WF68707  15.557   3.563   7.341 -0.1891 -0.1336  0.0527
    1WF      WF68708  26.526  11.770   9.384  0.2403  0.0496  0.0647
    1WF      WF68709   9.662  23.896   8.401  0.2473  0.3202 -0.1311
    1WF      WF68710  10.415  19.206   8.767  0.0621  0.1163  0.0306
    1WF      WF68711   2.963   5.449   7.242  0.0950 -0.0794 -0.3130
    1WF      WF68712  20.515  20.574   7.450  0.3029  0.0012  0.0888
    1WF      WF68713   3.058  17.443   7.012  0.0840  0.0962 -0.1805
    1WF      WF68714  19.676   8.376   8.189  0.2746 -0.1694 -0.1067
    1WF      WF68715  14.757  27.209   1.553  0.1027 -0.1050  0.0480
    1WF      WF68716   7.813   6.728   8.349 -0.1535 -0.2555  0.2940
    1WF      WF68717  24.849   3.637   0.327 -0.0555  0.0720 -0.0416
    1WF      WF68718  14.893  22.950   0.212  0.1697  0.2402  0.1452
    1WF      WF68719  19.236  23.370   7.111 -0.1394  0.2022  0.1297
    1WF      WF68720  12.193  10.666   8.980  0.2790 -0.0249  0.1255
    1WF      WF68721  11.130  28.314   0.808 -0.1699 -0.1318  0.1896
    1WF      WF68722   5.574  27.614   1.921 -0.2937  0.0816 -0.0959
    1WF      WF68723   9.071  19.129   0.353 -0.1181  0.0157 -0.1462
    1WF      WF68724  25.057   4.423   9.235  0.3106 -0.2402  0.2154
    1WF      WF68725  11.723  13.251   6.915 -0.1357  0.1741  0.1563
    1WF      WF68726  21.393  25.356   0.577 -0.2971  0.4739 -0.1240
    1WF      WF68727   9.267  14.685   0.251  0.1622  0.1716  0.1647
    1WF      WF68728  28.225   2.450   2.043  0.0914 -0.0169 -0.0530
    1WF      WF68729   2.761  11.587   8.534 -0.1123 -0.1968 -0.0787
    1WF      WF68730   0.162   0.779   8.128  0.0516 -0.0782 -0.2809
    1WF      WF68731   7.007  11.734   9.457  0.0741 -0.0090  0.2570
    1WF      WF68732   0.160  19.817   8.847 -0.0584 -0.0760  0.0055
    1WF      WF68733  26.260  20.443   0.815  0.3707  0.3358 -0.1940
    1WF      WF68734  27.220  16.052   0.863 -0.0778  0.0045  0.0118
    1WF      WF68735   7.490  29.821   1.387  0.0766  0.0979  0.1261
    1WF      WF68736  13.218  11.854   0.919  0.0848 -0.0266  0.3278
    1WF      WF68737  18.703  20.387   8.500 -0.0601 -0.1209  0.0162
    1WF      WF68738  20.808  26.247   0.353  0.0464  0.1123 -0.0075
    1WF      WF68739  17.243   1.136   2.041  0.1210  0.1059  0.0559
    1WF      WF68740  13.697  29.638   0.157 -0.3387  0.1141 -0.3679
    1WF      WF68741  16.995   8.743   7.690 -0.0342 -0.1701  0.1049
    1WF      WF68742  14.927   2.062   1.129 -0.1947  0.0731 -0.3448
    1WF      WF68743   0.489   1.212   0.800 -0.0443  0.0543 -0.1800
    1WF      WF68744  17.437   3.481   9.432 -0.0306  0.3813  0.2640
    1WF      WF68745  25.220  17.976   8.709  0.2030  0.3172  0.0879
    1WF      WF68746   8.914  14.266   8.574 -0.0177 -0.0695  0.0839
    1WF      WF68747  10.135  24.549   0.414  0.0159  0.0319  0.0562
    1WF      WF68748  17.138  10.366   0.044 -0.1188  0.0829 -0.0144
    1WF      WF68749  13.915  25.101   9.198 -0.0829 -0.2064  0.0711
    1WF      WF68750  20.216   2.585   0.324 -0.2900  0.0586  0.1051
    1WF      WF68751  14.033   8.995   1.830  0.0587 -0.1436  0.2162
    1WF      WF68752  18.938   3.991   1.182 -0.1607 -0.2356  0.4191
    1WF      WF68753  12.623  28.498   1.878 -0.0624 -0.0879 -0.1160
    1WF      WF68754  27.299  13.539   9.116  0.2879 -0.1532  0.2344
    1WF      WF68755   4.875  15.156   6.724  0.0011  0.3020  0.2300
    1WF      WF68756   4.166  14.416   8.373 -0.0646 -0.0544 -0.1882
    1WF      WF68757  11.289  27.137   1.121  0.1689 -0.3036 -0.0426
    1WF      WF68758   4.968  21.125   7.549 -0.2375 -0.1671 -0.0151
    1WF      WF68759  24.813  15.443   8.689  0.2283  0.0052  0.0560
    1WF      WF68760  15.586  24.698   8.907 -0.1397 -0.1120 -0.2822
    1WF      WF68761   2.822   9.080   1.616 -0.1392  0.0200 -0.2613
    1WF      WF68762  16.118   8.899   1.414 -0.0592 -0.1286  0.0529
    1WF      WF68763  22.469   5.908   0.316 -0.1452 -0.0589 -0.1609
    1WF      WF68764  26.387   1.194   1.594 -0.2390 -0.4648 -0.1096
    1WF      WF68765   3.606   5.633   0.335  0.2126  0.1042  0.0771
    1WF      WF68766  28.647   4.342   0.954 -0.3659 -0.0671 -0.3814
    1WF      WF68767   3.982  28.259   1.335 -0.2792 -0.0060  0.1725
    1WF      WF68768  15.135  16.176   9.131 -0.0606  0.0283  0.1897
    1WF      WF68769   3.032  11.210   8.286  0.1390 -0.2307 -0.1110
    1WF      WF68770  11.211   7.108   0.002 -0.0987 -0.1038 -0.2018
    1WF      WF68771  27.113   4.540   8.510 -0.0695 -0.1705  0.3053
    1WF      WF68772  10.591  16.007   0.414  0.0453  0.0473  0.1283
    1WF      WF68773  23.438   5.934   0.208 -0.0364  0.0667 -0.0929
    1WF      WF68774  17.417   7.610   9.098 -0.0500  0.1113  0.0684
    1WF      WF68775  13.350  24.987   1.599 -0.1596  0.1029 -0.0294
    1WF      WF68776  18.220   1.870   0.882 -0.1516  0.1672 -0.0798
    1WF      WF68777   4.911   8.705   2.707  0.0033 -0.0110 -0.0696
    1WF      WF68778  10.333   4.873   8.243 -0.0321 -0.1866  0.0401
    1WF      WF68779   6.956  13.039   8.285 -0.0224  0.1210  0.0508
    1WF      WF68780  15.713  13.155   0.703  0.2530  0.2669  0.0182
    1WF      WF68781   6.716  24.725   7.926  0.1499  0.0955  0.1950
    1WF      WF68782  28.182  23.247   6.833 -0.2158 -0.0440 -0.1178
    1WF      WF68783   1.469   4.152   2.135  0.0317 -0.0766 -0.0689
    1WF      WF68784  10.048  14.147   0.147  0.0006  0.0988 -0.4123
    1WF      WF68785  22.419   7.460   0.953 -0.0310 -0.2172  0.0329
    1WF      WF68786   9.515  20.663   0.701  0.2026  0.0896  0.0802
    1WF      WF68787  22.272  17.906   0.493 -0.2973  0.0935  0.1507
    1WF      WF68788  12.245   3.556   8.689 -0.1731 -0.1869 -0.1823
    1WF      WF68789  20.071  26.240   3.412 -0.0463 -0.1951 -0.1010
    1WF      WF68790   4.102  28.294   0.745  0.1663  0.1044  0.0575
    1WF      WF68791  20.190  12.587   7.413 -0.2303  0.2300  0.0594
    1WF      WF68792   4.221  19.800   8.419  0.1520  0.0997  0.2499
    1WF      WF68793  17.550  27.160   0.126  0.2911  0.1999 -0.0024
    1WF      WF68794  23.086   4.115   8.896 -0.1142 -0.0296  0.2926
    1WF      WF68795  26.364  24.717   9.291 -0.1803 -0.0615 -0.1312
    1WF      WF68796  10.858  15.159   8.234  0.0964 -0.0985 -0.1916
    1WF      WF68797   8.950  24.128   7.692 -0.2000 -0.1241  0.1433
    1WF      WF68798  18.114   9.767   8.354  0.2219  0.3566  0.0790
    1WF      WF68799  25.336  11.315   6.414  0.0146 -0.2779 -0.1433
    1WF      WF68800   9.204  21.666   7.332  0.1994 -0.0936  0.1545
    1WF      WF68801  25.373   6.902   7.818  0.2699 -0.1653  0.0756
    1WF      WF68802   1.827  10.324   8.497 -0.0961  0.1352 -0.0133
    1WF      WF68803   9.532   4.623   4.146  0.0909  0.0584 -0.0714
    1WF      WF68804   8.405  21.444   6.409 -0.1363 -0.1458 -0.0239
    1WF      WF68805   2.938  17.109   7.425 -0.0287  0.1308 -0.0090
    1WF      WF68806  22.392  26.896   1.304 -0.0666  0.2702 -0.1446
    1WF      WF68807   2.841  22.399   6.479 -0.4033  0.1195  0.2792
    1WF      WF68808  16.783   8.424   0.653 -0.1903  0.0016 -0.2901
    1WF      WF68809  23.196   8.230   6.984  0.1038  0.0633  0.1966
    1WF      WF68810  12.919   4.327   1.549  0.0354 -0.1509  0.1163
    1WF      WF68811  24.534  21.637   1.305  0.0353 -0.1208 -0.2792
    1WF      WF68812   0.696  16.007   7.005 -0.1094  0.2459  0.1957
    1WF      WF68813   2.170   7.262   0.653  0.0506 -0.0414  0.1858
    1WF      WF68814  26.504   5.195   0.738 -0.1379 -0.2732 -0.2061
    1WF      WF68815  25.079  11.698   2.676  0.0675 -0.1164  0.2212
    1WF      WF68816  27.578   0.153   1.853 -0.1146 -0.1553 -0.0833
    1WF      WF68817   0.740  24.792   0.346  0.1203  0.0296  0.1608
    1WF      WF68818  24.873  11.083   1.090  0.0434 -0.2761  0.0357
    1WF      WF68819  15.562   1.723   7.823 -0.2721 -0.3659  0.2649
    1WF      WF68820  21.464   8.432   8.540 -0.1729 -0.2442  0.2668
    1WF      WF68821  24.913  20.188   0.129 -0.0259  0.1183  0.0421
    1WF      WF68822  27.111  11.056   8.141 -0.1890  0.0950 -0.0384
    1WF      WF68823  17.317   2.103   0.467 -0.0220  0.2274  0.0892
    1WF      WF68824  25.057  29.650   7.397 -0.2163 -0.0982 -0.1725
    1WF      WF68825  25.071   7.735   8.450  0.0193  0.1906  0.0468
    1WF      WF68826   0.964  16.358   7.431  0.0167  0.0070 -0.0791
    1WF      WF68827  15.901  27.825   0.475 -0.1393  0.1967 -0.0367
    1WF      WF68828   9.410   8.882   1.393 -0.1732  0.3152 -0.0765
    1WF      WF68829  14.001  27.540   8.673 -0.1411  0.0310  0.1028
    1WF      WF68830   1.826  25.597   7.651  0.3030 -0.1102 -0.2637
    1WF      WF68831  12.738   6.939   1.175  0.1617  0.2865  0.0604
    1WF      WF68832  18.605  24.242   3.374 -0.2527 -0.2970  0.1149
    1WF      WF68833  29.552  11.243   0.232 -0.1309  0.1151 -0.1784
    1WF      WF68834   9.051  20.838   0.593  0.0840  0.1484  0.1298
    1WF      WF68835   4.224  28.213   1.749 -0.0517  0.0781  0.0108
    1WF      WF68836  21.417  21.339   1.415 -0.0803 -0.1165 -0.1534
    1WF      WF68837  12.734  20.081   8.431  0.2386 -0.2269 -0.0390
    1WF      WF68838  25.328  24.087   8.122  0.2230 -0.1022  0.2312
    1WF      WF68839  23.108  28.045   0.872  0.1838  0.1085 -0.1343
    1WF      WF68840   9.340  21.470   8.742 -0.2083  0.0576 -0.1068
    1WF      WF68841  29.620   5.647   8.341  0.1226 -0.0194 -0.0593
    1WF      WF68842  20.952  17.459   0.987 -0.0848 -0.1189  0.2201
    1WF      WF68843   9.173   3.787   0.770  0.2223  0.2796  0.2516
    1WF      WF68844  29.356  16.154   8.288  0.0371  0.1026 -0.1179
    1WF      WF68845  29.046  26.926   9.075 -0.1275 -0.0048  0.2311
    1WF      WF68846   7.550  16.699   2.694 -0.0245 -0.0205 -0.0140
    1WF      WF68847   0.777  20.730   0.592  0.2844  0.0651  0.1408
    1WF      WF68848   0.326  19.425   8.579  0.1866  0.3612 -0.3028
    1WF      WF68849  10.672  14.610   0.599  0.1787 -0.1100 -0.1276
    1WF      WF68850  10.451  25.020   1.255  0.0442  0.0624  0.4952
    1WF      WF68851  11.868  16.498   1.652 -0.3950  0.0656  0.2801
    1WF      WF68852   5.158  27.441   0.448  0.0257 -0.0745  0.3744
    1WF      WF68853  22.233  19.838   8.654 -0.0712  0.2359  0.0186
    1WF      WF68854   9.014  20.863   0.021 -0.0197 -0.0811 -0.0333
    1WF      WF68855   0.092   8.074   1.684  0.2244 -0.1765 -0.4688
    1WF      WF68856  27.452   3.247   8.477  0.1137 -0.2129 -0.0394
    1WF      WF68857  14.597  22.866   1.025 -0.0140  0.1425  0.2063
    1WF      WF68858  13.693   1.893   2.635 -0.1707  0.2145 -0.3400
    1WF      WF68859  25.545  10.917   6.183  0.0259  0.1571  0.4419
    1WF      WF68860  22.165  19.713   8.191  0.1268  0.0988 -0.0873
    1WF      WF68861  28.229   8.587   6.471  0.1175  0.1818 -0.0074
    1WF      WF68862  18.230  21.592   1.148  0.2173 -0.0805 -0.1185
    1WF      WF68863  11.786  15.935   1.546  0.4110  0.0807 -0.2237
    1WF      WF68864   0.215   3.427   1.041  0.1395  0.2425 -0.0496
    1WF      WF68865   1.553  25.866   0.683 -0.2257  0.3528 -0.1020
    1WF      WF68866   2.560   8.597   1.527 -0.1533 -0.1596  0.1820
    1WF      WF68867  28.307  19.827   8.935  0.0229  0.1159 -0.3826
    1WF      WF68868  22.770  24.132   0.016  0.0679  0.4686  0.0643
    1WF      WF68869  23.989  17.366   2.384 -0.1184 -0.1524 -0.1504
    1WF      WF68870  25.749   0.339   0.407  0.1162  0.0276  0.1394
    1WF      WF68871  11.997   6.784   0.275  0.2308  0.0716  0.0836
    1WF      WF68872  16.423  26.616   2.400  0.0657 -0.1329  0.3113
    1WF      WF68873  15.923  29.710   1.051 -0.0664  0.1925  0.0910
    1WF      WF68874  12.835  29.269   1.571  0.3610  0.3134 -0.0445
    1WF      WF68875  18.998  20.181   0.439  0.0718 -0.0723  0.2310
    1WF      WF68876  20.434  24.267   8.187 -0.1069 -0.0751  0.0990
    1WF      WF68877  26.702   5.990   6.734  0.1693  0.0631 -0.2761
    1WF      WF68878   7.992  14.435   6.613 -0.2078 -0.0879  0.0794
    1WF      WF68879  28.080  28.838   1.894  0.4294  0.2653  0.0073
    1WF      WF68880  18.940  27.536   9.242  0.3998  0.0229 -0.0119
    1WF      WF68881  26.962  26.254   0.331 -0.3993  0.1307 -0.2896
    1WF      WF68882  24.501  20.954   8.078 -0.1594 -0.3237 -0.2052
    1WF      WF68883   6.193  28.475   0.130  0.1949  0.2926 -0.0974
    1WF      WF68884  21.038  12.441   8.849 -0.0664 -0.0166  0.0808
    1WF      WF68885  20.123   7.118   0.418  0.4389 -0.0358 -0.0718
    1WF      WF68886   4.635  23.862   0.654  0.2204 -0.0743 -0.1073
    1WF      WF68887  12.431  23.617   7.289 -0.3049  0.3412 -0.2253
    1WF      WF68888   0.940   4.186   0.056  0.0393  0.2193  0.0899
    1WF      WF68889  18.518   7.338   7.871  0.1512  0.1074 -0.1777
    1WF      WF68890  13.491   7.255   1.974  0.2147 -0.3174  0.0866
    1WF      WF68891   6.287  25.047   0.392 -0.1354  0.1806  0.0576
    1WF      WF68892  22.906   6.108   9.432  0.1551  0.4893  0.1150
    1WF      WF68893   9.582   1.069   1.057 -0.0082  0.1548  0.2787
    1WF      WF68894  26.125  18.794   0.731 -0.0597 -0.3328  0.0257
    1WF      WF68895  24.795  16.455   2.095 -0.2142 -0.0073 -0.1350
    1WF      WF68896  19.463  27.441   9.096  0.0138 -0.0621 -0.2158
    1WF      WF68897   1.002  12.680   7.754 -0.0547 -0.2647  0.0066
    1WF      WF68898  19.155   5.035   7.962 -0.0260 -0.1998  0.2110
    1WF      WF68899  19.692  23.160   0.393 -0.0310 -0.1393 -0.2170
    1WF      WF68900  12.497  14.164   8.827  0.0089  0.0325  0.0054
    1WF      WF68901  18.625  25.831   9.231  0.2029 -0.0690  0.0377
    1WF      WF68902  24.693   8.731   8.430  0.0558  0.1340 -0.0025
    1WF      WF68903  20.651  29.303   7.560 -0.0182 -0.0544 -0.0474
    1WF      WF68904  12.760  22.154   7.031  0.1652  0.2277 -0.2219
    1WF      WF68905   4.448  29.392   1.429 -0.2463 -0.1776 -0.0714
    1WF      WF68906   1.221   5.525   8.205 -0.0782 -0.2108  0.1604
    1WF      WF68907   2.254  21.546   6.399 -0.2145  0.0837 -0.0388
    1WF      WF68908  27.848  25.972   1.707  0.0941 -0.2247 -0.3137
    1WF      WF68909  12.231  20.197   8.714 -0.0965  0.1662  0.1271
    1WF      WF68910  17.439  24.007   8.842 -0.1783 -0.5266 -0.2942
    1WF      WF68911  19.424   1.126   1.690 -0.0108 -0.1192 -0.3456
    1WF      WF68912  27.027  19.559   8.967 -0.0352  0.0040  0.0064
    1WF      WF68913  24.166   4.648   7.559  0.3532  0.2132  0.0474
    1WF      WF68914   3.314  23.008   7.657 -0.1268  0.0075 -0.3567
    1WF      WF68915  10.650  26.956   0.176  0.2249  0.2925  0.3920
    1WF      WF68916  14.048  13.043   0.621  0.3716 -0.0161 -0.4099
    1WF      WF68917   2.997   2.422   7.780  0.0024 -0.0984 -0.2042
    1WF      WF68918  18.197  17.606   1.117 -0.2925 -0.0818  0.3327
    1WF      WF68919  26.431  11.126   0.730  0.0989  0.0872  0.0178
    1WF      WF68920  12.254  22.642   1.153  0.3543 -0.2437 -0.2910
    1WF      WF68921   1.515   3.484   9.159  0.0007 -0.3325 -0.2315
    1WF      WF68922   4.346  19.726   8.903 -0.1978  0.1814 -0.1585
    1WF      WF68923  23.467  12.318   8.269  0.0397 -0.1110 -0.0288
    1WF      WF68924  14.027   1.593   0.005 -0.0350 -0.4447 -0.2242
    1WF      WF68925  25.284  25.947   8.571 -0.1094 -0.0088 -0.0413
    1WF      WF68926   4.621  20.896   7.880  0.2491 -0.1026 -0.0369
    1WF      WF68927   5.264   5.476   9.121  0.3081  0.0757  0.0635
    1WF      WF68928   0.563  26.759   8.881 -0.0953  0.2139  0.0654
    1WF      WF68929  12.102  15.267   8.129  0.0837  0.2217  0.0654
    1WF      WF68930  27.574   5.803   9.414  0.1467 -0.1084  0.0034
    1WF      WF68931  15.664  13.533   1.138 -0.3338  0.1355  0.1389
    1WF      WF68932  22.711  27.264   1.928 -0.0381 -0.0098  0.0959
    1WF      WF68933  27.539  16.478   0.728 -0.1110  0.2786  0.2076
    1WF      WF68934  25.376  13.458   8.308 -0.1246 -0.0917 -0.0508
    1WF      WF68935  29.541  14.311   1.009 -0.1646 -0.0692 -0.1116
    1WF      WF68936   8.336   7.017   8.470 -0.1073  0.0404 -0.0239
    1WF      WF68937  21.733  19.006   9.136  0.0033  0.0509  0.0539
    1WF      WF68938   4.512  19.092   5.551 -0.0364  0.1192 -0.0558
    1WF      WF68939  27.804   4.349   0.955 -0.1906  0.1853 -0.3455
    1WF      WF68940   9.564  16.433   8.233  0.0304  0.0004  0.0897
    1WF      WF68941   4.164  16.209   7.414  0.0166  0.2171  0.1532
    1WF      WF68942  18.557   4.278   0.932  0.1120  0.1171  0.3003
    1WF      WF68943   9.355  24.161   8.009 -0.3552 -0.1499 -0.1602
    1WF      WF68944   0.666  23.719   0.314  0.1674  0.1056 -0.0795
    1WF      WF68945  14.502  21.090   7.321 -0.1015 -0.1450  0.1368
    1WF      WF68946   9.958  24.998   0.242  0.2635  0.0918 -0.1764
    1WF      WF68947  10.095  19.037   0.375  0.2025  0.0232  0.1846
    1WF      WF68948  17.788  11.449   8.525  0.0849 -0.0405  0.0751
    1WF      WF68949   6.194   2.435   8.597 -0.2136 -0.0585  0.0477
    1WF      WF68950  22.580   7.019   8.598  0.0182  0.1660  0.0012
    1WF      WF68951  13.782   8.829   9.189  0.0213  0.0600 -0.1734
    1WF      WF68952  23.726  25.282   6.420 -0.1553 -0.0010  0.2700
    1WF      WF68953   3.071  28.408   8.928  0.0413  0.1786  0.0202
    1WF      WF68954  25.803  24.502   8.627  0.0659  0.0112  0.3943
    1WF      WF68955  20.232  19.430   0.732 -0.4072  0.2546  0.1092
    1WF      WF68956  26.400   1.399   2.135 -0.0708 -0.0542 -0.0995
    1WF      WF68957  10.711   9.334   1.249 -0.0263 -0.1135 -0.0494
    1WF      WF68958  27.418   7.020   7.926 -0.1853  0.1000  0.0274
    1WF      WF68959   3.077  12.640   0.892 -0.0333  0.0059 -0.0281
    1WF      WF68960   1.807   4.751   2.697 -0.1225  0.1964 -0.4695
    1WF      WF68961   0.311   3.366   0.089 -0.2445 -0.0056  0.3332
    1WF      WF68962  13.975   5.407   8.365  0.4441 -0.0936  0.1940
    1WF      WF68963  22.010  15.131   1.987 -0.2601 -0.0412  0.0233
    1WF      WF68964  23.752  12.883   9.358  0.1071 -0.0561 -0.2074
    1WF      WF68965  20.304  10.966   8.054 -0.2607 -0.1154 -0.0799
    1WF      WF68966  25.078   6.051   9.128 -0.1217  0.3577  0.2454
    1WF      WF68967   2.236  15.124   1.044 -0.0117  0.2102 -0.1195
    1WF      WF68968   5.442  24.464   1.419  0.0687  0.0158  0.2097
    1WF      WF68969  16.591  20.400   0.851  0.1272  0.0065 -0.0598
    1WF      WF68970  26.572  12.504   1.562  0.0567  0.2242  0.0590
    1WF      WF68971  10.854  10.174   8.683 -0.0137  0.0176  0.1746
    1WF      WF68972  17.204   8.902   8.087  0.0368  0.0662 -0.4240
    1WF      WF68973  15.662  12.904   8.623  0.0273 -0.1229  0.1489
    1WF      WF68974   0.574  17.962   1.665 -0.3672 -0.1079 -0.1739
    1WF      WF68975  16.056  11.245   0.132  0.1333 -0.0386  0.2104
    1WF      WF68976  22.270   0.129   7.910 -0.1053 -0.2184  0.2559
    1WF      WF68977  16.701   1.003   1.852  0.1274 -0.2049  0.0189
    1WF      WF68978  14.198  14.890   0.899 -0.0881  0.0231 -0.0820
    1WF      WF68979   2.543   7.758   8.566  0.1320 -0.0323 -0.0021
    1WF      WF68980  29.027  28.106   7.982 -0.1046 -0.1034 -0.0763
    1WF      WF68981  13.509  25.167   1.175  0.2579 -0.1208 -0.0940
    1WF      WF68982  10.006   3.610   0.354 -0.3288  0.1273  0.1903
    1WF      WF68983  21.099   6.415   9.283 -0.1825 -0.0037  0.0308
    1WF      WF68984  18.075  11.025   9.367  0.0921 -0.0913  0.2942
    1WF      WF68985   6.779   1.979   0.739 -0.2297  0.0862  0.1838
    1WF      WF68986   0.706  27.230   8.960  0.2351  0.0897  0.3949
    1WF      WF68987   7.439   3.629   2.077 -0.1755  0.1501 -0.0429
    1WF      WF68988   0.841  27.597   8.542  0.0131 -0.2894  0.0406
    1WF      WF68989  23.190  17.646   0.861 -0.2619 -0.0293  0.2363
    1WF      WF68990   9.406   5.451   8.408  0.0854  0.1971  0.0894
    1WF      WF68991   2.785   7.334   8.520 -0.0562  0.4180 -0.1016
    1WF      WF68992  15.332  23.498   8.015  0.3339  0.0383  0.0003
    1WF      WF68993   6.459  20.378   7.576 -0.1813 -0.1887 -0.2236
    1WF      WF68994  24.342  20.706   0.822  0.0234  0.2150 -0.2235
    1WF      WF68995  10.087   2.476   3.745  0.0626  0.1050  0.0677
    1WF      WF68996   1.712  11.351   8.637 -0.1527 -0.1099 -0.2617
    1WF      WF68997   5.767  21.336   1.975  0.1097 -0.1737 -0.2285
    1WF      WF68998  29.530  19.851   7.418 -0.0307 -0.0277  0.1301
    1WF      WF68999   8.632   4.943   8.701  0.1703  0.1657  0.0963
    1WF      WF69000  11.046  25.106   7.603  0.0350  0.1286  0.1485
    1WF      WF69001   1.054  12.700   0.912  0.1120 -0.2225 -0.1430
    1WF      WF69002  28.375  28.431   8.588  0.2964  0.0176  0.2391
    1WF      WF69003  20.158  22.627   0.435 -0.0956 -0.1225  0.1491
    1WF      WF69004   0.382  10.329   1.086  0.0020  0.0158  0.0417
    1WF      WF69005   9.602   1.048   0.568 -0.0418 -0.1108  0.2646
    1WF      WF69006  14.872  11.585   0.999  0.1501  0.0660  0.0926
    1WF      WF69007   5.856  25.345   0.223  0.0122 -0.2224 -0.1957
    1WF      WF69008  27.971  28.518   8.846 -0.0147 -0.2012 -0.3398
    1WF      WF69009  11.140  14.345   1.598 -0.0346 -0.0109  0.0031
    1WF      WF69010  10.753  16.489   0.498  0.0650 -0.2815  0.1857
    1WF      WF69011  20.617   5.849   1.177 -0.0266  0.0289  0.0409
    1WF      WF69012   8.418  14.318   0.422  0.2217 -0.1512 -0.1880
    1WF      WF69013  25.141   1.922   9.116 -0.1276 -0.2897 -0.1605
    1WF      WF69014   6.744  25.256   0.453 -0.4764  0.0629  0.2078
    1WF      WF69015  15.147  15.161   0.913  0.0136 -0.2106 -0.2045
    1WF      WF69016  11.868  16.732   0.370  0.0718 -0.1259  0.2445
    1WF      WF69017   3.133   0.429   2.032  0.0677  0.1199 -0.1079
    1WF      WF69018  27.564  19.406   7.874 -0.4082  0.0543  0.3303
    1WF      WF69019  23.488  26.195   8.163 -0.3830 -0.0641  0.1145
    1WF      WF69020  29.306   3.130   9.006 -0.1624 -0.1064  0.1216
    1WF      WF69021   9.520  16.218   7.802  0.3294 -0.4181 -0.1010
    1WF      WF69022  10.414  18.099   9.394  0.1586  0.1370  0.0965
    1WF      WF69023   4.896  12.842   0.078  0.0901 -0.0267  0.0843
    1WF      WF69024  14.525   3.785   2.312 -0.0745  0.0355  0.0123
    1WF      WF69025  19.790  10.572   1.037  0.1698  0.2954  0.0287
    1WF      WF69026   1.439  27.391   8.011  0.1128 -0.0610  0.1142
    1WF      WF69027  28.955  10.163   1.108 -0.0748  0.1584  0.1096
    1WF      WF69028  17.177   9.585   0.707 -0.1103  0.0576  0.2213
    1WF      WF69029   0.492  27.681   1.664 -0.1775 -0.1710  0.0832
    1WF      WF69030   8.980  10.156   1.415  0.3970  0.0917  0.0439
    1WF      WF69031  13.026  13.909   8.811 -0.0166 -0.0140  0.0577
    1WF      WF69032   1.903  28.536   9.387 -0.1688  0.1407  0.0873
    1WF      WF69033  20.965  16.018   0.612 -0.1347 -0.1503  0.0405
    1WF      WF69034   1.447   5.781   8.608  0.1178  0.1409 -0.1859
    1WF      WF69035  27.483  26.138   0.520 -0.1709  0.0147 -0.4450
    1WF      WF69036  11.015  23.403   7.167 -0.0242 -0.0342  0.0425
    1WF      WF69037   6.536  21.182   7.853  0.0953 -0.0375 -0.2115
    1WF      WF69038  17.301  19.432   7.637 -0.1224 -0.3802 -0.1308
    1WF      WF69039  22.193   2.743   1.827 -0.1964  0.0291  0.3613
    1WF      WF69040  13.055  10.313   7.997 -0.2033  0.0198  0.0133
    1WF      WF69041   0.076   2.911   6.854  0.1522 -0.2019  0.2987
    1WF      WF69042  17.983  29.391   1.220  0.0083 -0.0676 -0.4287
    1WF      WF69043  16.972  28.694   0.427 -0.0277 -0.2190 -0.3020
    1WF      WF69044  13.180   9.103   2.696  0.0631 -0.2594 -0.2568
    1WF      WF69045   5.334   6.326   2.112  0.0738 -0.0577  0.1262
    1WF      WF69046   3.550  12.602   0.884 -0.2576  0.1955  0.0496
    1WF      WF69047  26.372   6.659   9.102 -0.0391 -0.0152 -0.0453
    1WF      WF69048  16.307  14.487   7.177  0.1349  0.0134  0.1195
    1WF      WF69049   2.115   9.075   7.676 -0.2383 -0.2880  0.2606
    1WF      WF69050  17.968   3.776   0.511 -0.2103 -0.1131 -0.0556
    1WF      WF69051  10.521  12.986   8.322 -0.3404  0.0693  0.0529
    1WF      WF69052   7.874  12.789   0.025 -0.1363  0.0003 -0.0199
    1WF      WF69053  22.133  12.590   8.001  0.1326 -0.1008 -0.2496
    1WF      WF69054  22.294   4.342   1.984  0.0741  0.2489 -0.0687
    1WF      WF69055  25.995   2.907   1.565  0.0182 -0.2668  0.0288
    1WF      WF69056   3.389   4.486   0.464 -0.1026 -0.0847 -0.1628
    1WF      WF69057  27.260  26.425   8.077 -0.0194 -0.1897  0.1679
    1WF      WF69058   0.213  27.301   1.762  0.0410  0.1326  0.1579
    1WF      WF69059  15.642   2.836   0.298 -0.2931  0.0283  0.0171
    1WF      WF69060  12.482  22.724   1.564 -0.2158 -0.2805 -0.0510
    1WF      WF69061   2.275   5.187   9.010 -0.0572  0.0653  0.2771
    1WF      WF69062   1.114   2.777   6.975 -0.0098 -0.2978  0.0250
    1WF      WF69063  25.969   3.503   2.086  0.0823 -0.0037 -0.0823
    1WF      WF69064  25.460  19.222   8.751 -0.0336  0.0892 -0.2334
    1WF      WF69065  21.565  23.427   8.868 -0.0831 -0.0960  0.1462
    1WF      WF69066   6.651  19.259   1.614 -0.0914 -0.0512  0.0334
    1WF      WF69067  11.256  28.009   0.409  0.1081  0.2462  0.1659
    1WF      WF69068  10.646   5.196   8.006  0.0290  0.0391 -0.1843
    1WF      WF69069   8.566   4.730   1.459 -0.1512  0.2411 -0.1525
    1WF      WF69070   2.938  22.512   8.374  0.2040  0.2696 -0.3013
    1WF      WF69071  27.562   7.947   0.624  0.1350 -0.1457  0.2833
    1WF      WF69072  16.819  16.083   7.986 -0.3826  0.2204  0.3062
    1WF      WF69073  22.028  17.209   8.550  0.2129 -0.2029 -0.1062
    1WF      WF69074  29.732   2.994   3.182 -0.2941  0.1150 -0.1843
    1WF      WF69075  24.406  17.082   0.090  0.0138 -0.3514  0.0608
    1WF      WF69076  24.126   9.108   8.809 -0.0082 -0.1054 -0.2143
    1WF      WF69077  14.997   8.424   9.298 -0.0774 -0.1032 -0.1654
    1WF      WF69078  16.106  26.644   1.511  0.0644  0.2050  0.1534
    1WF      WF69079  10.545  10.399   9.029 -0.3592 -0.1323  0.1629
    1WF      WF69080   2.169   1.356   1.558 -0.0316  0.1762  0.2853
    1WF      WF69081  17.078  25.371   1.021  0.0347  0.0333 -0.1090
    1WF      WF69082   8.921   6.710   2.800 -0.2558 -0.2112 -0.0372
    1WF      WF69083   7.254   4.264   2.970 -0.1903 -0.0005 -0.0347
    1WF      WF69084  29.568  22.959   0.028  0.0769  0.1831  0.6308
    1WF      WF69085  24.624  20.481   0.444  0.5114  0.0623  0.0563
    1WF      WF69086  22.219   0.933   3.248  0.2796 -0.2156 -0.0455
    1WF      WF69087   1.063  20.913   8.497 -0.0439 -0.0359 -0.2630
    1WF      WF69088  16.081   7.201   7.654  0.0070  0.2260  0.0978
    1WF      WF69089  25.947  13.370   7.517 -0.1914  0.1394 -0.1461
    1WF      WF69090  29.298  21.437   7.562 -0.0711  0.0125 -0.0218
    1WF      WF69091  25.483  28.638   8.423  0.0306  0.0882  0.0451
    1WF      WF69092  19.602  16.913   7.892 -0.1175 -0.2006 -0.0761
    1WF      WF69093   7.188  25.499   0.391 -0.4592 -0.0376 -0.0291
    1WF      WF69094  12.915  23.797   0.267 -0.2144 -0.2309 -0.0138
    1WF      WF69095  20.576  22.355   0.252  0.2165  0.3062  0.0455
    1WF      WF69096   6.663  26.636   0.507  0.0316  0.1235 -0.0621
    1WF      WF69097  11.176  25.733   1.578  0.0266  0.0619  0.2790
    1WF      WF69098  26.511  11.979   7.913 -0.1923 -0.1765 -0.0888
    1WF      WF69099  15.022   4.047   2.040  0.0841 -0.1424 -0.2197
    1WF      WF69100  26.052  10.166   7.553  0.0563  0.0797  0.0288
    1WF      WF69101  19.914  16.592   0.782 -0.0297  0.0967  0.1390
    1WF      WF69102  23.849   1.033   6.820 -0.2120 -0.0669 -0.1453
    1WF      WF69103   2.906   4.319   0.523  0.0767  0.0309  0.1319
    1WF      WF69104  29.233  26.907   0.970  0.1010 -0.1893 -0.0126
    1WF      WF69105  20.065  18.605   0.469  0.1302  0.1142  0.0728
    1WF      WF69106   0.193  11.689   8.160 -0.1761 -0.1377 -0.0515
    1WF      WF69107  20.531  17.212   0.763  0.0889  0.0758  0.0975
    1WF      WF69108  26.022  11.198   7.669 -0.0332  0.1950  0.2336
    1WF      WF69109   4.989   9.199   2.765 -0.2207 -0.1063  0.3029
    1WF      WF69110  13.652   1.022   1.635 -0.0144  0.3558  0.1572
    1WF      WF69111  15.098  23.934   8.111  0.1500 -0.2043 -0.2795
    1WF      WF69112  19.185  20.611   0.275  0.2856  0.1641  0.0159
    1WF      WF69113  12.128   4.846   1.727 -0.0476 -0.1635 -0.1625
    1WF      WF69114  12.397  23.857   0.394 -0.2565  0.0651  0.1088
    1WF      WF69115  10.268  29.478   8.499 -0.1448  0.2478  0.0268
    1WF      WF69116   7.345  18.889   0.643 -0.3373 -0.3471  0.0936
    1WF      WF69117   1.600   8.771   0.815  0.1834 -0.0772 -0.0268
    1WF      WF69118  13.675  23.550   8.143 -0.1785  0.1258 -0.0385
    1WF      WF69119  20.555   6.992   0.094 -0.0192  0.2097  0.1575
    1WF      WF69120  22.871  19.073   0.954 -0.0762  0.1743  0.2854
    1WF      WF69121   2.622   8.805   1.991 -0.0263  0.1654 -0.0487
    1WF      WF69122   8.328  12.785   9.157  0.0343 -0.1294 -0.0586
    1WF      WF69123  23.037  11.960   8.424 -0.0523  0.0964  0.2251
    1WF      WF69124   2.649  14.571   1.050 -0.0709 -0.1119 -0.0113
    1WF      WF69125  15.508  29.590   0.181 -0.1147  0.2964  0.0975
    1WF      WF69126  15.591  16.205   8.860 -0.0754 -0.2381  0.2355
    1WF      WF69127  11.776  27.645   8.144 -0.0964  0.0353 -0.3700
    1WF      WF69128  18.598  18.032   9.119 -0.1075 -0.1052  0.2063
    1WF      WF69129   1.363   6.065   1.096  0.1076 -0.0837 -0.3251
    1WF      WF69130   8.218  28.947   1.763  0.2027  0.0923 -0.1758
    1WF      WF69131  13.716  12.107   0.788 -0.0927 -0.2168 -0.2453
    1WF      WF69132  18.379  25.173   7.175 -0.0720  0.2168  0.1023
    1WF      WF69133   0.571  15.651   8.035  0.1707  0.0305  0.1796
    1WF      WF69134  11.279  23.744   6.926  0.1398 -0.0732 -0.1902
    1WF      WF69135  21.996  13.051   8.935  0.0096 -0.2108  0.0138
    1WF      WF69136  29.666  22.930   8.352 -0.2159  0.3577  0.0162
    1WF      WF69137  12.252  22.349   0.747 -0.0775  0.0680  0.3896
    1WF      WF69138   5.021  14.643   6.709  0.1119 -0.1672 -0.1177
    1WF      WF69139  15.695  14.656   9.010  0.1308  0.0776  0.0441
    1WF      WF69140   5.532  14.417   6.766  0.0558  0.1521 -0.0003
    1WF      WF69141  10.685  27.912   2.131  0.0868 -0.0273 -0.2086
    1WF      WF69142  23.513   5.876   1.382 -0.1316  0.1686 -0.2062
    1WF      WF69143  15.334   5.843   2.150  0.2654  0.2466  0.1511
    1WF      WF69144  23.170   4.700   8.902 -0.2218 -0.0984  0.1227
    1WF      WF69145  23.830  19.874   0.445 -0.0785  0.1801  0.0621
    1WF      WF69146  22.290  28.006   8.197  0.1795  0.2523  0.0408
    1WF      WF69147  23.692  14.218   9.415 -0.3118 -0.0925 -0.0251
    1WF      WF69148  16.870  17.279   7.699 -0.0410  0.1172  0.0877
    1WF      WF69149   3.043  10.492   9.173 -0.1093  0.0465  0.1761
    1WF      WF69150   3.577   6.612   8.016 -0.1724 -0.0514 -0.3458
    1WF      WF69151  15.948  22.218   9.230 -0.0925  0.1184  0.1952
    1WF      WF69152   3.753  29.775   7.674 -0.0836  0.0739 -0.1026
    1WF      WF69153  29.433   7.730   9.042  0.1346 -0.2318 -0.1701
    1WF      WF69154   3.488  17.356   8.501  0.2400  0.0250 -0.0928
    1WF      WF69155   4.411  13.548   8.327 -0.0855  0.1536  0.0117
    1WF      WF69156  17.134  14.841   9.172 -0.2919 -0.1632 -0.2182
    1WF      WF69157  26.187  24.437   7.063  0.3084 -0.0912 -0.0140
    1WF      WF69158   9.475  14.966   2.824  0.0006 -0.0043 -0.2902
    1WF      WF69159  29.189  26.199   0.938 -0.1559 -0.0283 -0.0079
    1WF      WF69160  25.629   8.635   6.853  0.1502  0.2353 -0.1136
    1WF      WF69161  17.217  10.327   6.986  0.1879 -0.0855 -0.0034
    1WF      WF69162  17.027  28.570   7.685  0.0596  0.0512  0.2092
    1WF      WF69163  14.928  25.660   8.345 -0.1645  0.0117  0.1051
    1WF      WF69164  19.713  20.881   1.481  0.0379  0.1100 -0.0997
    1WF      WF69165  12.128  27.185   8.078  0.1370  0.2078  0.0049
    1WF      WF69166  12.015  24.247   8.244  0.0016 -0.1877 -0.3284
    1WF      WF69167   3.335   0.787   1.705  0.0097  0.1988 -0.3512
    1WF      WF69168   9.392  13.331   7.611  0.0771 -0.2676  0.1774
    1WF      WF69169  13.638   7.603   0.485 -0.3573 -0.0783  0.3411
    1WF      WF69170   7.954  27.616   6.750  0.2145 -0.1399 -0.1707
    1WF      WF69171  24.872   7.420   9.362 -0.0008  0.0198  0.1782
    1WF      WF69172   9.474  27.264   0.507  0.0364 -0.1260  0.0066
    1WF      WF69173  14.554   9.051   1.915 -0.1651 -0.0258  0.0204
    1WF      WF69174   7.215  25.199   0.778  0.0322  0.1815  0.0974
    1WF      WF69175  11.798  27.360   3.383  0.3408  0.0888 -0.3421
    1WF      WF69176  13.977   7.412   2.101 -0.0826  0.0685  0.1079
    1WF      WF69177  16.091   6.732   7.998 -0.1631 -0.0495  0.0421
    1WF      WF69178   9.223   0.788   0.305 -0.3551 -0.2887 -0.0258
    1WF      WF69179   1.169  22.118   8.493  0.0081 -0.3505  0.0246
    1WF      WF69180   3.500  25.153   7.602  0.3094  0.3706  0.1238
    1WF      WF69181  18.154   4.018   0.946  0.1123 -0.0384  0.1432
    1WF      WF69182   7.502   2.724   1.499  0.1617  0.1839  0.2679
    1WF      WF69183  19.999  12.732   0.616  0.2710 -0.1393 -0.1180
    1WF      WF69184   0.348  27.707   8.415 -0.0394 -0.0739  0.0438
    1WF      WF69185  24.484   8.469   0.819 -0.2331  0.2294  0.3391
    1WF      WF69186  12.333  24.068   8.580  0.2109  0.0016 -0.2150
    1WF      WF69187  23.707   6.403   8.505  0.2442 -0.1486 -0.0207
    1WF      WF69188  20.214  14.062   7.390  0.0501  0.0661  0.0668
    1WF      WF69189  26.827   4.894   8.258  0.0916  0.4007 -0.1454
    1WF      WF69190  19.196  12.296   7.909  0.0827 -0.2332 -0.2636
    1WF      WF69191  15.827  10.083   7.662 -0.2477  0.2783 -0.2883
    1WF      WF69192  13.720  28.654   8.954 -0.0589 -0.0081  0.2604
    1WF      WF69193   4.330  14.726   2.672  0.0288 -0.4653 -0.1657
    1WF      WF69194   3.303  25.577   8.686 -0.1461  0.1413 -0.0820
    1WF      WF69195  11.893  26.403   9.305  0.0650  0.1612 -0.4419
    1WF      WF69196   5.446  10.229   0.351  0.0814 -0.1513 -0.1687
    1WF      WF69197   1.669  16.476   6.454  0.1887 -0.0020 -0.0304
    1WF      WF69198  23.186  10.017   7.251 -0.1419 -0.1821 -0.0230
    1WF      WF69199   1.047  20.911   1.114 -0.1606  0.2537  0.1623
    1WF      WF69200  24.014  14.494   0.198  0.1413 -0.1667  0.0703
    1WF      WF69201  20.536   0.681   6.605 -0.1964 -0.1188  0.2064
    1WF      WF69202  12.547  24.644   0.463 -0.0167  0.0270  0.1896
    1WF      WF69203  13.638  13.353   0.536 -0.0238  0.0468  0.0286
    1WF      WF69204  11.147  18.855   7.314  0.3253 -0.0351  0.0521
    1WF      WF69205  19.828  10.812   7.676  0.1231  0.2479 -0.0034
    1WF      WF69206   8.826   6.426   7.316 -0.1374 -0.1147 -0.0119
    1WF      WF69207   6.297  24.702   7.191 -0.0281  0.3688 -0.5599
    1WF      WF69208   2.054  24.132   5.517 -0.3410  0.0680  0.1624
    1WF      WF69209  13.468  27.862   9.352  0.1843  0.1334 -0.0618
    1WF      WF69210  18.624  29.533   8.258 -0.1613  0.1018  0.1683
    1WF      WF69211  27.636  16.330   1.255 -0.1522  0.0215 -0.1234
    1WF      WF69212  24.948  29.208   2.459 -0.0365  0.0694 -0.3779
    1WF      WF69213   4.817  16.550   7.953 -0.0665  0.0233  0.2511
    1WF      WF69214   9.225  25.787   7.961  0.0804  0.2042  0.0780
    1WF      WF69215   8.636  17.697   7.818 -0.1171 -0.0082  0.1803
    1WF      WF69216  16.911   5.117   7.509  0.0676 -0.1167 -0.0109
    1WF      WF69217  19.495  20.472   1.390 -0.1026 -0.0653  0.1807
    1WF      WF69218   7.027  16.211   8.537 -0.2570  0.1277 -0.1142
    1WF      WF69219  17.852   3.354   0.254 -0.1342 -0.0050  0.0927
    1WF      WF69220  18.566  16.895   1.269 -0.0838  0.4042  0.2084
    1WF      WF69221   6.601   1.542   0.420 -0.1028  0.0363  0.0090
    1WF      WF69222   3.490   3.513   1.799  0.1676 -0.0783  0.2125
    1WF      WF69223  19.839  28.467   0.642 -0.0619  0.1050 -0.1408
    1WF      WF69224  11.513  20.685   8.113 -0.3213  0.2509 -0.1385
    1WF      WF69225  21.524   5.824   6.254 -0.3369  0.0005 -0.1820
    1WF      WF69226  13.128  20.516   1.219 -0.0424 -0.2007 -0.2703
    1WF      WF69227   9.949  20.199   7.369  0.2318  0.2872 -0.0083
    1WF      WF69228  14.254  18.533   9.318  0.1076  0.0659  0.1904
    1WF      WF69229  13.461   7.532   1.575 -0.3207  0.1449 -0.0045
    1WF      WF69230  26.022   1.089   1.889 -0.1988  0.1139 -0.0567
    1WF      WF69231  18.990  12.147   8.780  0.1396  0.0299  0.3842
    1WF      WF69232   4.307  13.202   7.351 -0.2524 -0.1076  0.2406
    1WF      WF69233   8.907  27.068   1.790  0.0556 -0.1960 -0.0714
    1WF      WF69234  24.691   3.869   6.356  0.0615 -0.2990  0.3532
    1WF      WF69235  12.185   3.711   0.143 -0.3441  0.0233 -0.0288
    1WF      WF69236  12.286   2.357   7.543  0.1210 -0.0056 -0.2224
    1WF      WF69237  28.231  20.237   9.202  0.0176  0.1755  0.1419
    1WF      WF69238  17.088  15.078   0.635  0.1086 -0.1214 -0.1124
    1WF      WF69239   9.215  28.615   9.087 -0.0459 -0.0516 -0.5034
    1WF      WF69240   1.252  28.652   0.784 -0.0052 -0.2135  0.0413
    1WF      WF69241   3.669  26.598   6.086  0.0913 -0.4665 -0.2136
    1WF      WF69242   7.915  24.791   7.352  0.2396 -0.1892 -0.2374
    1WF      WF69243   5.538   9.441   1.942  0.0325 -0.0609  0.0535
    1WF      WF69244  19.584  15.398   7.904 -0.1326 -0.2572 -0.1020
    1WF      WF69245   6.338   7.636   8.616 -0.1894  0.2103 -0.1744
    1WF      WF69246  11.466  21.439   8.491 -0.1936 -0.2255  0.3653
    1WF      WF69247   8.809  25.793   8.225  0.0168  0.0481  0.3442
    1WF      WF69248   3.894   1.437   7.778 -0.0963  0.0479 -0.0557
    1WF      WF69249   6.656  20.685   7.897 -0.1271  0.2426 -0.1346
    1WF      WF69250  21.510  18.580   9.021 -0.0714  0.0696 -0.2742
    1WF      WF69251   7.519  28.790   8.003  0.0352 -0.0505  0.1289
    1WF      WF69252  22.379   3.026   1.446 -0.0712  0.3062  0.2076
    1WF      WF69253   4.924  26.628   7.883  0.1763 -0.2226 -0.1101
    1WF      WF69254   2.605  16.671   0.707 -0.1311 -0.1705 -0.1652
    1WF      WF69255   8.995   7.104   1.476 -0.0224 -0.2690  0.4474
    1WF      WF69256  29.610  17.334   7.570  0.2254 -0.0032 -0.0824
    1WF      WF69257   7.802  22.790   1.999 -0.2539 -0.1088 -0.0864
    1WF      WF69258  27.072   3.575   8.446 -0.2501 -0.3776  0.2171
    1WF      WF69259  26.485  11.663   0.495  0.0927 -0.1502  0.1850
    1WF      WF69260   6.491  26.920   8.627  0.0741 -0.0289  0.0996
    1WF      WF69261  13.920  23.772   8.543  0.1525 -0.2112 -0.1518
    1WF      WF69262  11.995   3.384   1.686  0.1408 -0.1079  0.1462
    1WF      WF69263  29.636   6.428   7.322 -0.3205  0.0612 -0.0834
    1WF      WF69264  10.813  16.693   0.995 -0.0343  0.3727  0.2398
    1WF      WF69265  18.329   8.479   8.765 -0.1578 -0.1705 -0.0313
    1WF      WF69266   1.094   8.743   5.911 -0.2335 -0.1765 -0.1363
    1WF      WF69267   8.048  24.111   2.368 -0.2514  0.4058  0.1114
    1WF      WF69268  26.959   1.367   2.207 -0.0951 -0.0969 -0.1160
    1WF      WF69269  12.096  14.028   9.088 -0.1135 -0.1322  0.2741
    1WF      WF69270  13.079  26.710   1.067  0.0658 -0.3493 -0.1864
    1WF      WF69271   7.556   6.136   0.302  0.4008  0.0406  0.1336
    1WF      WF69272  20.814  18.923   8.779  0.1154  0.3493  0.1345
    1WF      WF69273  21.392  20.189   8.982  0.4869  0.2853  0.0833
    1WF      WF69274   0.407   4.817   8.903  0.2098 -0.0906  0.1458
    1WF      WF69275   8.686   6.164   8.964  0.1896  0.2323  0.1634
    1WF      WF69276   7.775   4.026   0.751 -0.0980  0.2716 -0.2986
    1WF      WF69277  19.885   0.199   8.028  0.0959 -0.1195 -0.0694
    1WF      WF69278  28.026  11.442   0.374 -0.1172  0.0071 -0.4838
    1WF      WF69279   5.160  10.338   9.396  0.1488 -0.2144  0.1160
    1WF      WF69280  26.656   5.492   0.298 -0.0553  0.3319  0.3123
    1WF      WF69281  11.202  29.176   2.676  0.0277  0.1499 -0.0668
    1WF      WF69282  16.041  12.854   8.292 -0.0180 -0.1450  0.3707
    1WF      WF69283  23.847   9.512   5.895  0.1249  0.1244  0.0361
    1WF      WF69284  11.723   3.490   8.644  0.0169 -0.3389  0.1567
    1WF      WF69285   3.272   4.130   0.119  0.0004 -0.0485 -0.3264
    1WF      WF69286   5.826  18.032   6.659  0.3517 -0.0276 -0.1253
    1WF      WF69287  25.953  14.456   5.412 -0.2349 -0.1435  0.1444
    1WF      WF69288  17.598   4.627   8.829 -0.0154 -0.1225 -0.1212
    1WF      WF69289  27.333  10.932   0.468 -0.0599 -0.0352 -0.1650
    1WF      WF69290  25.696  21.303   1.370  0.1054  0.0555  0.0397
    1WF      WF69291  21.108  27.443   9.305  0.0271 -0.0342  0.0640
    1WF      WF69292  24.032   8.503   8.233 -0.3256  0.1022  0.0897
    1WF      WF69293   9.942   8.743   7.275 -0.0653  0.0154  0.0398
    1WF      WF69294  18.543  11.748   6.178 -0.0373  0.1730  0.0440
    1WF      WF69295  11.913   0.761   0.004  0.1685 -0.0150  0.3027
    1WF      WF69296  23.408  19.987   0.257  0.2519  0.0652  0.0117
    1WF      WF69297   9.701  20.650   7.454  0.3551  0.0705  0.0571
    1WF      WF69298  25.050   5.203   0.322  0.1462  0.0305  0.0496
    1WF      WF69299  26.100   3.403   8.418 -0.2069  0.4130  0.1738
    1WF      WF69300  24.807   7.460   8.903 -0.0309 -0.0408  0.0816
    1WF      WF69301   0.555  27.584   0.855 -0.2132 -0.0950 -0.0312
    1WF      WF69302  10.299   6.815   0.354 -0.1896 -0.1739  0.3614
    1WF      WF69303   0.833  21.430   6.447  0.0053  0.4456  0.0048
    1WF      WF69304  10.792  18.095   0.998  0.0824  0.0671  0.1882
    1WF      WF69305  20.825   1.108   3.314 -0.0106  0.1452  0.2431
    1WF      WF69306   3.493  21.600   1.283 -0.0032 -0.2962  0.2159
    1WF      WF69307   5.178  22.229   0.931  0.1121  0.0127 -0.0651
    1WF      WF69308  10.551  25.386   1.577 -0.1456 -0.0227 -0.2243
    1WF      WF69309  19.926  23.606   0.575  0.1869 -0.2361 -0.1786
    1WF      WF69310  29.470   3.800   7.972 -0.0471 -0.2379  0.2294
    1WF      WF69311   4.003  28.717   0.305 -0.0504  0.0244 -0.0406
    1WF      WF69312  10.801   4.543   0.358 -0.0826 -0.0025 -0.0356
    1WF      WF69313   1.088  18.373   1.837 -0.0127 -0.1799 -0.0580
    1WF      WF69314  26.784   5.821   9.393  0.0675  0.0941  0.0593
    1WF      WF69315   9.709  20.907   9.258 -0.0171  0.1616 -0.2641
    1WF      WF69316  20.118   5.651   2.695 -0.0358 -0.0812 -0.0965
    1WF      WF69317  24.916  29.749   0.303  0.1692 -0.0976 -0.0027
    1WF      WF69318   4.378  15.973   0.262 -0.2638 -0.2107  0.2126
    1WF      WF69319  22.111  13.374   9.260 -0.0168 -0.1641 -0.1535
    1WF      WF69320  11.149  20.400   8.630  0.1412  0.0009  0.0371
    1WF      WF69321  17.066   7.238   9.311 -0.1450 -0.1236 -0.3124
    1WF      WF69322  10.645  16.316   9.415 -0.1281  0.1467  0.0011
    1WF      WF69323   9.827  27.915   8.841 -0.0349  0.2712 -0.1526
    1WF      WF69324  29.289  15.666   8.479 -0.0478 -0.1300  0.1963
    1WF      WF69325   6.750  22.536   7.241  0.0393 -0.2781  0.1276
    1WF      WF69326  14.591  18.573   1.852  0.1959 -0.2005 -0.0457
    1WF      WF69327  23.486   1.106   1.638 -0.2437  0.3655 -0.2278
    1WF      WF69328  14.162  29.396   1.135 -0.1156 -0.1276 -0.2102
    1WF      WF69329  28.931  17.817   8.589  0.2829 -0.0047 -0.0669
    1WF      WF69330  16.659  20.869   7.875 -0.1588  0.0595 -0.0409
    1WF      WF69331  14.008  18.707   0.862 -0.2058 -0.3313  0.0022
    1WF      WF69332  22.247  11.765   1.022  0.0514  0.0186 -0.0895
    1WF      WF69333  26.414   0.754   8.832  0.1323  0.0594  0.0742
    1WF      WF69334  11.953   2.796   1.739 -0.0558  0.0874  0.2545
    1WF      WF69335   6.387  24.718   8.753 -0.0749 -0.0881  0.2875
    1WF      WF69336  12.738  14.684   8.989  0.0127 -0.1865  0.1160
    1WF      WF69337  28.215  17.718   8.734 -0.0083 -0.1293 -0.2444
    1WF      WF69338  25.141  29.315   0.475  0.0920  0.3928 -0.2360
    1WF      WF69339   3.028   0.043   8.753  0.1521 -0.2309  0.2343
    1WF      WF69340   6.463  27.421   6.984  0.3974 -0.0837 -0.0443
    1WF      WF69341   3.827   6.076   0.375  0.3393  0.0951  0.1301
    1WF      WF69342   4.008  14.862   8.052 -0.0094 -0.2931 -0.4699
    1WF      WF69343  23.637  17.925   0.737  0.3235  0.1760  0.1436
    1WF      WF69344   1.937  15.997   6.528 -0.2499 -0.0844  0.2102
    1WF      WF69345  10.979  26.910   6.254  0.0345 -0.1425  0.0035
    1WF      WF69346   2.114  23.694   9.291 -0.1481 -0.0941 -0.2699
    1WF      WF69347  11.184  24.692   7.866 -0.0338 -0.0835  0.1947
    1WF      WF69348  14.501   5.538   8.486  0.2291  0.2654 -0.1727
    1WF      WF69349  23.235  12.695   9.204  0.0358 -0.0641 -0.2714
    1WF      WF69350  15.303   1.590   0.345 -0.0307 -0.1249 -0.1009
    1WF      WF69351   0.380   1.000   7.656 -0.0865 -0.0120  0.0559
    1WF      WF69352  26.021  27.652   8.468 -0.0992 -0.1322  0.1721
    1WF      WF69353  18.490   5.168   7.491  0.2186  0.2458  0.1671
    1WF      WF69354   9.002   7.400   0.951  0.1248 -0.2575 -0.0054
    1WF      WF69355  10.299  24.995   9.328  0.1835  0.1093 -0.1690
    1WF      WF69356  25.161  16.121   7.435 -0.0116  0.0264  0.0004
    1WF      WF69357  29.430  13.091   7.249 -0.3257  0.1086 -0.0600
    1WF      WF69358   4.373  29.682   6.917 -0.0285  0.0818  0.2845
    1WF      WF69359   9.777  11.345   0.974 -0.0114 -0.2608 -0.0602
    1WF      WF69360   8.114   3.848   9.397  0.3372  0.1180  0.0558
    1WF      WF69361   3.710  18.528   0.248 -0.1255  0.0265  0.1914
    1ION     NA69362  16.552   7.366   6.712  0.0864  0.2384  0.0400
    1ION     NA69363  24.920  14.025   8.151  0.3622 -0.3596  0.0190
    1ION     NA69364  26.199  27.527   9.126  0.1147  0.0671 -0.0636
    1ION     NA69365  20.810   1.294   8.580 -0.1401 -0.1883  0.1304
    1ION     NA69366  13.800  10.784   6.851  0.3298  0.0906  0.2665
    1ION     NA69367   2.361   4.499   3.499 -0.1279 -0.0454 -0.0969
    1ION     NA69368  21.386  22.173   8.625 -0.1864 -0.1374 -0.1037
    1ION     NA69369   1.404   1.432   2.783 -0.1888  0.2736 -0.0686
    1ION     NA69370   8.363  14.116   6.855 -0.0984 -0.0466 -0.3928
    1ION     NA69371  21.037  19.102   1.491 -0.0118 -0.2494 -0.2720
    1ION     NA69372  15.328   2.216   1.378 -0.0058  0.0234 -0.1046
    1ION     NA69373   7.511  29.242   3.543  0.2697  0.4158  0.3216
    1ION     NA69374   3.285   7.213   6.926  0.0391 -0.1415 -0.3565
    1ION     NA69375  18.264  14.291   1.942  0.1666 -0.1368 -0.0776
    1ION     NA69376  14.979  27.913   6.653 -0.2120  0.1305 -0.0817
    1ION     NA69377  12.603  15.410   8.354  0.3334  0.0505  0.1070
    1ION     NA69378   7.951  23.961   6.838 -0.1710 -0.1116 -0.3303
    1ION     NA69379  14.442  25.986   2.706 -0.0234  0.0424 -0.1440
    1ION     NA69380  27.774  26.940   1.580  0.2676 -0.0874 -0.1236
    1ION     NA69381  13.574  15.429   0.520  0.1149 -0.1487 -0.1188
    1ION     NA69382  14.751  29.126   3.551 -0.0040 -0.2904  0.1697
    1ION     NA69383  25.276  11.764   7.952 -0.0758  0.0921 -0.1922
    1ION     NA69384   2.919  21.914   0.816  0.2903  0.2751  0.1116
    1ION     NA69385   5.696  22.360   1.253 -0.0930  0.0418 -0.1079
    1ION     NA69386   7.954  14.024   2.809 -0.0480  0.0267 -0.1758
    1ION     NA69387  25.673   4.175   6.324 -0.1684  0.1856  0.1149
    1ION     NA69388   7.829  14.722   6.970 -0.1998 -0.1987 -0.0145
    1ION     NA69389  17.590   5.235   2.331 -0.1032 -0.0777  0.0809
    1ION     NA69390   0.135  12.515   0.813 -0.2260  0.0956  0.1455
    1ION     NA69391   7.603  22.970   5.856  0.2210  0.0182 -0.0901
    1ION     NA69392  19.798  20.757   0.530 -0.2547  0.1063  0.0189
    1ION     NA69393   7.970   8.072   7.669  0.3205  0.0161 -0.0587
    1ION     NA69394  12.814   9.861   2.731 -0.0166  0.1772  0.4474
    1ION     NA69395  20.942  19.392   8.609  0.0193 -0.3942  0.0116
    1ION     NA69396   2.039   0.472   9.425  0.1488 -0.0342 -0.2932
    1ION     NA69397  26.648  19.218   1.189 -0.0470 -0.2730 -0.3579
    1ION     NA69398   4.178  18.315   0.941 -0.1877 -0.2531  0.2883
    1ION     NA69399  22.342  19.163   2.806  0.1404  0.3161 -0.3563
    1ION     NA69400  24.746   2.098   0.036  0.0150  0.0797  0.4009
    1ION     NA69401  14.779  17.627   2.232  0.1576 -0.2831  0.2886
    1ION     NA69402  15.272  14.323   6.612 -0.1603  0.0378 -0.2018
    1ION     NA69403   3.729  20.389   2.512  0.2103  0.0563 -0.1471
    1ION     NA69404  25.146  10.910   2.374 -0.5627 -0.1248 -0.1056
    1ION     NA69405  16.050  13.722   6.431 -0.2148  0.0881  0.1211
    1ION     NA69406   7.719  14.564   9.383 -0.2674  0.1039 -0.4876
    1ION     NA69407  13.311  14.622   8.317 -0.0841 -0.1680 -0.0933
    1ION     NA69408   8.295  12.488   8.595 -0.1451  0.0264  0.1243
    1ION     NA69409  18.303  16.345   2.161  0.0463  0.0950 -0.1283
    1ION     NA69410   2.847   3.640   2.698 -0.1509 -0.0275 -0.4327
    1ION     NA69411  18.785  10.713   0.749  0.2260  0.2800  0.0659
    1ION     NA69412   4.867   4.077   9.206  0.2019  0.0399 -0.1368
    1ION     NA69413  21.997  12.221   2.318 -0.2232  0.1460 -0.2996
    1ION     NA69414  11.280  10.556   8.436  0.0791  0.0492  0.0666
    1ION     NA69415   0.729   6.484   7.753 -0.0186  0.2012 -0.1094
    1ION     NA69416  17.640  14.448   1.138 -0.0459 -0.1423  0.2036
    1ION     NA69417  17.808  11.320   7.993 -0.3480  0.0781  0.0761
    1ION     NA69418   8.677   3.154   3.199 -0.2423 -0.0172  0.1039
    1ION     NA69419  28.898   4.807   2.281  0.2345 -0.1901  0.0653
    1ION     NA69420  10.389  16.517   8.751 -0.0941  0.0452 -0.1783
    1ION     NA69421   6.364  17.608   6.040 -0.2653  0.0483 -0.5111
    1ION     NA69422   5.538   8.370   6.969  0.1126  0.2675  0.0301
    1ION     NA69423  29.467  26.907   9.422  0.0622 -0.1735  0.2628
    1ION     NA69424   3.055  19.072   0.697 -0.0226 -0.0111 -0.1291
    1ION     NA69425   0.564  17.076   0.536  0.0621  0.1498 -0.1852
    1ION     NA69426   0.092  10.577   8.242  0.2984  0.0956  0.2783
    1ION     NA69427  21.887  22.540   6.261 -0.2157  0.0386 -0.2107
    1ION     NA69428  24.250  12.101   0.549  0.1042 -0.3409  0.1094
    1ION     NA69429  15.774  19.827   7.967  0.2702  0.0503  0.0861
    1ION     NA69430   4.867   5.239   6.824  0.1209 -0.1185 -0.1265
    1ION     NA69431   6.187  14.682   2.499 -0.1354  0.0281 -0.0154
    1ION     NA69432   3.373  21.475   8.829 -0.1606 -0.0340  0.0968
    1ION     NA69433  12.532  27.365   8.450  0.2128  0.0083 -0.1378
    1ION     NA69434   5.742  21.418   8.500 -0.0791 -0.1597 -0.0140
    1ION     NA69435  21.315  20.621   8.720 -0.1264 -0.0041  0.0758
    1ION     NA69436  10.271  19.008   8.355 -0.0375  0.2687 -0.0226
    1ION     NA69437   4.727  20.585   6.133  0.2405  0.0248  0.3978
    1ION     NA69438  17.088  19.241   9.054  0.0761  0.1246  0.4567
    1ION     NA69439   6.884  18.235   5.672  0.1562  0.1643  0.1400
    1ION     NA69440  24.508  26.355   1.046  0.1812 -0.0041  0.0618
    1ION     NA69441  21.580  11.093   8.248 -0.0122 -0.1454 -0.0859
    1ION     NA69442  25.014  10.827   0.304  0.1965  0.0885  0.0080
    1ION     NA69443  27.642  20.731   1.276  0.1582  0.1676  0.1038
    1ION     NA69444   8.637  15.617   6.275 -0.1243 -0.1796  0.0035
    1ION     NA69445  14.609   9.954   6.726 -0.1902 -0.1282  0.1470
    1ION     NA69446  22.566   0.855   7.161  0.1260 -0.0628 -0.2375
    1ION     NA69447  25.789   2.458   8.741 -0.0479 -0.1240  0.2741
    1ION     NA69448  26.645  27.976   0.851  0.1847  0.1436 -0.0445
    1ION     NA69449   9.161   4.356   3.972 -0.1791  0.0745 -0.0297
    1ION     NA69450  23.416  11.822   6.600  0.0378 -0.3093 -0.4271
    1ION     NA69451  25.618  17.366   5.953  0.0299 -0.3679  0.0950
    1ION     NA69452  19.673   5.670   6.514  0.2353 -0.0769 -0.0925
    1ION     NA69453  12.877  14.835   7.090 -0.0869 -0.0879 -0.0949
    1ION     NA69454   0.017  19.945   7.851 -0.0397 -0.1290 -0.1778
    1ION     NA69455  21.361  12.850   2.327  0.2159 -0.1028 -0.0268
    1ION     NA69456  20.068  11.777   7.711 -0.2138 -0.1038 -0.0020
    1ION     NA69457   1.825  26.162   5.969  0.0079  0.1292 -0.0428
    1ION     NA69458  24.542  10.681   7.825  0.1193 -0.1508 -0.0949
    1ION     NA69459   1.281   0.455   8.959 -0.2663 -0.1700 -0.2779
    1ION     NA69460   3.143  29.387   9.110 -0.1573  0.1683  0.1032
    1ION     NA69461   0.526   8.605   9.024 -0.1052 -0.2189 -0.2084
    1ION     NA69462  21.227   3.173   2.310 -0.0475  0.1815 -0.0872
    1ION     NA69463   5.887   1.466   2.977  0.3260 -0.0426 -0.2353
    1ION     NA69464  21.240  29.740   1.677 -0.5394  0.1950 -0.0875
    1ION     NA69465  18.524   0.595   1.568 -0.0156 -0.1456 -0.2118
    1ION     NA69466   7.776  10.098   9.365  0.1164  0.1688  0.3056
    1ION     NA69467  25.601  14.535   7.506 -0.0469  0.0884 -0.1187
    1ION     NA69468  18.534   6.079   1.721 -0.1561 -0.2146 -0.0825
    1ION     NA69469  11.132   6.320   1.073 -0.0554  0.2154 -0.0513
    1ION     NA69470  13.879  13.783   8.232 -0.1194 -0.0886 -0.0725
    1ION     NA69471   6.118  17.989   2.218 -0.1928 -0.0355 -0.0814
    1ION     NA69472   3.346  15.641   8.582 -0.0600 -0.0584 -0.2185
    1ION     NA69473   9.331  25.858   0.089  0.0934 -0.1369  0.1128
    1ION     NA69474   8.087  21.965   8.393 -0.4918  0.1381  0.2162
    1ION     NA69475   5.051  28.046   3.026 -0.0996  0.1387 -0.2071
    1ION     NA69476  18.810  20.280   2.929  0.0825  0.1557  0.0507
    1ION     NA69477  28.068  29.448   7.743  0.2830  0.0068 -0.0380
    1ION     NA69478   0.783  10.248   8.868 -0.2857 -0.0733  0.1208
    1ION     NA69479  19.963  21.402   8.665  0.3296 -0.2718 -0.4748
    1ION     NA69480  29.672   1.392   6.356  0.0449 -0.3932 -0.2593
    1ION     NA69481  13.324   7.323   6.847 -0.3940  0.0745 -0.0105
    1ION     NA69482  23.515  19.410   3.029 -0.0150  0.1938 -0.0066
    1ION     NA69483  29.379  16.627   0.660  0.4586 -0.3591  0.0900
    1ION     NA69484  25.271   4.886   9.243 -0.0425  0.0466 -0.0196
    1ION     NA69485  28.960  11.896   6.512  0.3213  0.0382  0.2079
    1ION     NA69486   0.359  27.384   2.661 -0.3919  0.3865 -0.1082
    1ION     NA69487  18.398  22.876   9.393 -0.0784  0.3112  0.2880
    1ION     NA69488   5.010  19.205   5.785  0.0639  0.0543 -0.0750
    1ION     NA69489   3.743   2.037   6.560  0.2346 -0.0705 -0.2061
    1ION     NA69490  19.670  12.062   2.281 -0.0129 -0.1703  0.2294
    1ION     NA69491  24.328  10.506   2.876 -0.0988 -0.1913  0.1473
    1ION     NA69492  16.682  25.867   1.056  0.3827 -0.3526 -0.2079
    1ION     NA69493  25.734   5.939   0.523  0.2037  0.1360  0.2781
    1ION     NA69494  10.557  17.862   6.392  0.0224 -0.0227  0.1694
    1ION     NA69495   9.559  15.984   2.293  0.0728 -0.0770 -0.1914
    1ION     NA69496  18.174   9.550   2.275  0.0928 -0.0784  0.0403
    1ION     NA69497  10.933  10.047   9.182  0.0639 -0.4081  0.1897
    1ION     NA69498  22.844   9.924   8.212 -0.0402 -0.0871 -0.2253
    1ION     NA69499  29.664  17.258   6.119  0.1213 -0.1994 -0.1568
    1ION     NA69500  17.391  28.282   7.450  0.0113 -0.0181 -0.1073
    1ION     NA69501   5.486  26.108   0.930  0.0162 -0.0282  0.1184
    1ION     NA69502   4.306  19.044   7.589  0.3256  0.2500 -0.0477
    1ION     NA69503   2.055  22.184   2.225  0.1350 -0.0724  0.1018
    1ION     NA69504  10.718  16.597   1.494  0.2148 -0.0452  0.3722
    1ION     NA69505  29.482   2.549   3.286  0.2217 -0.1703 -0.0241
    1ION     NA69506  10.595  25.894   2.268 -0.3770  0.1145  0.0195
    1ION     NA69507  26.086   1.515   6.702  0.3234 -0.0037 -0.1618
    1ION     NA69508  13.151  23.422   8.091 -0.0540  0.0316  0.0369
    1ION     NA69509  19.812  27.363   0.662 -0.0337  0.0057 -0.2433
    1ION     NA69510  11.349  18.464   6.480  0.0178 -0.1589  0.0814
    1ION     NA69511  10.600  15.148   7.761  0.0169 -0.2002 -0.2170
    1ION     NA69512  15.004  23.273   6.200  0.0125  0.3848 -0.0383
    1ION     NA69513  10.231  29.675   1.586  0.2292  0.0153  0.1336
    1ION     NA69514   3.439  15.089   5.898  0.0268 -0.1196  0.1007
    1ION     NA69515  21.618   8.646   7.999  0.1375  0.0285 -0.2421
    1ION     NA69516   4.722   3.956   6.890  0.3644  0.0586  0.1855
    1ION     NA69517  25.042   8.774   7.144  0.0532  0.1015  0.0647
    1ION     NA69518  13.294  29.186   7.830  0.1255  0.1938 -0.0175
    1ION     NA69519  23.507  16.858   6.930  0.0041  0.0630  0.0756
    1ION     NA69520  15.968   8.030   2.413 -0.2211 -0.0894 -0.0869
    1ION     NA69521  22.250   6.592   7.531 -0.4056 -0.1083  0.0210
    1ION     NA69522  20.825  15.528   2.014 -0.1335  0.2694  0.0255
    1ION     NA69523  20.020   0.942   7.455 -0.1136 -0.1524 -0.0851
    1ION     NA69524  10.082   7.503   2.380 -0.1019  0.0226  0.0120
    1ION     NA69525   0.750  27.995   1.391 -0.0662  0.0372 -0.0314
    1ION     NA69526   0.645   6.529   2.427  0.0515 -0.2230 -0.3461
    1ION     NA69527  21.898  14.704   0.866  0.2578 -0.3136 -0.0752
    1ION     NA69528  14.345   5.377   0.197  0.0723 -0.0890  0.4348
    1ION     NA69529  14.466  18.299   6.844 -0.4606  0.2525  0.4959
    1ION     NA69530   4.125  26.344   8.422  0.1429  0.3590 -0.0850
    1ION     NA69531  22.719   8.887   0.479 -0.1569 -0.1232 -0.2643
    1ION     NA69532  28.817  29.018   7.160 -0.2451  0.1432  0.3538
    1ION     NA69533  14.876  26.708   7.902 -0.3335 -0.1203  0.0971
    1ION     NA69534  29.164  28.171   1.549 -0.3040 -0.0341  0.2281
    1ION     NA69535   9.674   6.553   2.395 -0.2023 -0.0322 -0.0098
    1ION     NA69536  11.455  25.604   8.762 -0.1913  0.2328  0.1061
    1ION     NA69537  23.527  12.126   0.363  0.3141 -0.1640  0.0665
    1ION     NA69538   0.913  17.916   0.126  0.1363  0.0117  0.1789
    1ION     NA69539  28.090   2.131   2.903  0.2016  0.2004 -0.0357
    1ION     NA69540  20.356  15.039   1.998 -0.1155 -0.0374 -0.3174
    1ION     NA69541  12.888  21.039   8.355 -0.2019  0.0168 -0.2937
    1ION     NA69542   3.884  24.627   1.195 -0.1085  0.3087  0.1536
    1ION     NA69543  29.161  14.262   8.310  0.3310 -0.0117  0.0888
    1ION     NA69544  22.176  16.151   9.401  0.1796  0.2200  0.0982
    1ION     NA69545  27.034  16.501   7.929  0.0520  0.0987 -0.2690
    1ION     NA69546  19.086  11.311   7.037  0.0350 -0.2003 -0.1566
    1ION     NA69547  18.790  18.946   6.982 -0.1437  0.0227 -0.2211
    1ION     NA69548  19.203  22.229   6.919 -0.0133 -0.2034 -0.1610
    1ION     NA69549   0.714   5.297   1.422 -0.1363 -0.0920  0.1551
    1ION     NA69550  27.890  10.974   6.193  0.1772 -0.2651 -0.1496
    1ION     NA69551  16.873  15.671   0.896 -0.0302 -0.2199  0.2301
    1ION     NA69552  20.100   2.082   8.753  0.0491 -0.0351 -0.1075
    1ION     NA69553  10.972  28.675   3.545 -0.0100 -0.1146  0.5493
    1ION     NA69554  19.692  12.846   2.104 -0.2392 -0.1239  0.2096
    1ION     NA69555  22.714  25.959   3.213 -0.2374 -0.0822  0.1644
    1ION     NA69556  23.509  15.046   7.428  0.2014  0.1138  0.0561
    1ION     NA69557  25.337  11.449   8.831  0.1326 -0.0884  0.1645
    1ION     NA69558   9.420   1.503   0.411  0.2201 -0.0753 -0.2691
    1ION     NA69559  26.729   1.090   6.439 -0.1281 -0.0383 -0.2656
    1ION     NA69560   8.687  29.453   9.173  0.1042 -0.1876 -0.0060
    1ION     NA69561   7.660  17.048   7.590  0.0850 -0.2059 -0.2419
    1ION     NA69562   4.850  15.045   2.553 -0.0030 -0.0098 -0.2922
    1ION     NA69563  20.101   9.599   0.644  0.1502 -0.0852  0.2816
    1ION     NA69564  16.497   0.452   3.173 -0.0664 -0.1288  0.0237
    1ION     NA69565  17.182  11.351   6.639 -0.0197 -0.2227 -0.1299
    1ION     NA69566  19.831  16.030   8.765 -0.4453 -0.3667 -0.0480
    1ION     NA69567  22.984  27.824   3.044 -0.1348  0.0020  0.0479
    1ION     NA69568  22.739  25.800   1.853 -0.4474  0.0315  0.1900
    1ION     NA69569   7.061  20.229   1.933 -0.2592  0.1064  0.0593
    1ION     NA69570  25.798  21.802   6.766 -0.1703 -0.0668  0.3136
    1ION     NA69571  28.861  18.302   0.646 -0.3295  0.3500  0.3087
    1ION     NA69572  16.617  22.927   7.364 -0.1354  0.0428 -0.1491
    1ION     NA69573  10.779  20.846   6.857 -0.1245  0.1384 -0.0504
    1ION     NA69574   3.604  16.355   7.440  0.0641 -0.0855  0.2069
    1ION     NA69575  28.536   5.777   7.646  0.0558 -0.1662  0.0734
    1ION     NA69576  29.083   0.391   2.281 -0.0554  0.1192  0.0039
    1ION     NA69577   3.254   9.951   1.636 -0.1995 -0.0931 -0.0231
    1ION     NA69578  16.417  14.267   0.126 -0.0874 -0.0131  0.0642
    1ION     NA69579  15.558  25.559   0.327 -0.0910  0.1408  0.0599
    1ION     NA69580  19.614  24.883   3.370 -0.0151  0.0910 -0.1173
    1ION     NA69581  28.579   2.883   3.292  0.0393  0.0512 -0.1444
    1ION     NA69582  23.631  17.007   1.486  0.0165  0.0938 -0.1194
    1ION     NA69583  11.921  15.702   6.683  0.2780 -0.0205 -0.3726
    1ION     NA69584  17.845  16.442   6.669  0.0968 -0.1486  0.3321
    1ION     NA69585  10.074  15.609   9.078  0.0402 -0.0098  0.0872
    1ION     NA69586  27.138  15.292   2.019 -0.4806  0.0758 -0.1319
    1ION     NA69587  14.152   5.983   1.063  0.1548 -0.0149 -0.0494
    1ION     NA69588  12.052   3.007   3.344  0.1496  0.1173  0.1001
    1ION     NA69589   8.224   3.934   7.296 -0.0672 -0.4362 -0.1884
    1ION     NA69590  22.088  12.253   0.821 -0.2277 -0.1965  0.0517
    1ION     NA69591   8.269  26.728   2.566 -0.0163 -0.0359  0.0827
    1ION     NA69592  12.480  10.568   0.729 -0.0791 -0.0356  0.1452
    1ION     NA69593   4.319   2.653   0.374 -0.2132 -0.0930  0.1546
    1ION     NA69594  20.626  18.995   2.404  0.2969 -0.1152  0.0961
    1ION     NA69595   0.646  18.865   6.222  0.1661 -0.0938  0.2324
    1ION     NA69596  20.215   5.441   1.683  0.2296 -0.0339 -0.1259
    1ION     NA69597   0.235  26.075   8.233 -0.3089 -0.0087 -0.0116
    1ION     NA69598  23.484   5.457   6.284  0.0061  0.6151  0.0738
    1ION     NA69599   1.889   8.937   6.632 -0.2627  0.1350  0.3067
    1ION     NA69600   2.648  21.121   1.444  0.1030  0.0054 -0.0028
    1ION     NA69601  28.774   3.771   0.085  0.1569  0.0749  0.1562
    1ION     NA69602  25.300  18.362   0.582 -0.1128  0.1550 -0.1445
    1ION     NA69603  15.625   5.139   6.823  0.2492  0.1002  0.2227
    1ION     NA69604  29.795  27.689   6.447  0.3218 -0.0208  0.1261
    1ION     NA69605  14.249   1.468   1.145 -0.2036  0.2561  0.0545
    1ION     NA69606  12.134   2.617   8.445 -0.1287 -0.1811 -0.2082
    1ION     NA69607   2.438  14.437   6.041  0.0293  0.1480 -0.2784
    1ION     NA69608   4.966  13.384   7.456 -0.0404  0.0275  0.2863
    1ION     NA69609  29.328   1.292   7.773  0.0171  0.0126 -0.0213
    1ION     NA69610  19.252   2.073   3.146 -0.2416 -0.1319 -0.2952
    1ION     NA69611   5.223  14.718   8.198  0.4473  0.1164 -0.0210
    1ION     NA69612   7.917  11.167   7.367  0.1356 -0.2434 -0.2434
    1ION     NA69613  29.566  20.996   7.768 -0.1967 -0.1078  0.2390
    1ION     NA69614   5.116  13.699   5.960 -0.0228  0.1216  0.1006
    1ION     NA69615  25.647  21.725   8.073 -0.0566 -0.1298 -0.0599
    1ION     NA69616   2.806   8.228   8.370  0.1142  0.0751 -0.0732
    1ION     NA69617   1.881   7.162   8.586  0.3224  0.0481 -0.0200
    1ION     NA69618  27.838   8.354   8.432 -0.0860  0.1519  0.1195
    1ION     NA69619  15.956  24.026   6.801 -0.1531  0.2350  0.1487
    1ION     NA69620   8.652  19.297   0.159 -0.2129  0.0109  0.0123
    1ION     NA69621  22.619   3.263   7.111 -0.2514 -0.1059  0.3410
    1ION     NA69622  15.241  22.148   7.611 -0.0292  0.3139  0.1064
    1ION     NA69623  11.371  27.261   6.397  0.3029 -0.0073  0.0873
    1ION     NA69624  10.466  26.519   0.474  0.1047  0.1395 -0.1402
    1ION     NA69625   4.061  13.246   1.851  0.1647 -0.0861  0.0407
    1ION     NA69626   5.308  18.616   8.518  0.0407 -0.0372  0.3162
    1ION     NA69627  20.666   2.816   1.727  0.3107 -0.0289  0.1472
    1ION     NA69628   5.720  29.560   0.561 -0.2304 -0.2207  0.2087
    1ION     NA69629  13.363   0.798   0.106  0.0669 -0.1566  0.0837
    1ION     NA69630   2.974  24.732   0.211  0.2256 -0.1839  0.3373
    1ION     NA69631  12.030  13.583   2.444 -0.1106  0.1751 -0.0459
    1ION     NA69632   8.388   1.848   3.693  0.0848 -0.2835  0.0315
    1ION     NA69633  21.077  16.073   9.132  0.2559 -0.0293 -0.1125
    1ION     NA69634  23.736  28.400   3.037 -0.1815  0.1541  0.1568
    1ION     NA69635  18.533  14.752   6.598  0.0860  0.2354  0.0620
    1ION     NA69636   3.177  10.439   2.941  0.0100 -0.1598  0.5250
    1ION     NA69637   1.168   2.473   7.954  0.2017  0.1116 -0.1818
    1ION     NA69638  16.621  13.036   6.566  0.0720 -0.4908 -0.2016
    1ION     NA69639   2.618  18.568   5.975  0.1921  0.3566  0.1465
    1ION     NA69640  19.409  10.627   9.036 -0.0787  0.0352  0.0894
    1ION     NA69641   3.492   1.859   1.961 -0.0750  0.0436  0.0412
    1ION     NA69642   5.539   7.831   7.956  0.0215  0.1988  0.0301
    1ION     NA69643  24.890   4.824   1.290 -0.1413 -0.1819  0.0510
    1ION     NA69644  12.635  12.540   0.648  0.0093 -0.0442  0.0419
    1ION     NA69645  28.145  25.234   8.535 -0.0927  0.0126  0.0409
    1ION     NA69646   1.333  12.271   1.033 -0.1759 -0.0538  0.3305
    1ION     NA69647  21.014  28.932   3.176  0.1646 -0.1696 -0.3602
    1ION     NA69648  26.604   4.834   3.228 -0.2961 -0.1835 -0.0603
    1ION     NA69649  25.038  28.367   9.304  0.0378  0.0282  0.1166
    1ION     NA69650   4.863  17.802   2.051 -0.1504  0.0746  0.2348
    1ION     NA69651   8.169  10.004   2.705  0.2827  0.0516  0.2052
    1ION     NA69652  25.508  12.299   0.539  0.3226 -0.1118  0.1803
    1ION     NA69653  12.639  28.653   1.239 -0.1168 -0.2172  0.1639
    1ION     NA69654  22.004   8.827   0.837  0.0612 -0.0336  0.1219
    1ION     NA69655  26.595   1.638   8.565 -0.2349  0.2697 -0.2159
    1ION     NA69656  25.291   8.535   2.569 -0.1286  0.2473  0.1250
    1ION     NA69657   1.800   3.888   9.134 -0.0791 -0.0295 -0.2795
    1ION     NA69658  28.382   7.954   7.563 -0.1635 -0.1337 -0.0117
    1ION     NA69659   4.580   6.761   0.051  0.0801  0.2474 -0.1266
    1ION     NA69660   7.234  24.942   0.297  0.0946 -0.0970  0.4065
    1ION     NA69661  26.448  16.616   9.181  0.1088 -0.1711  0.0336
    1ION     NA69662   1.874  16.939   8.493 -0.0870  0.1127  0.0730
    1ION     NA69663   0.599  25.709   7.565  0.3777 -0.1957  0.0157
    1ION     NA69664  12.043   7.673   8.591  0.0529 -0.0008 -0.1541
    1ION     NA69665   0.540  28.488   6.640 -0.2760 -0.1500  0.0855
    1ION     NA69666   5.246   0.379   0.632 -0.0464  0.0427  0.0367
    1ION     NA69667  14.173   3.877   3.522 -0.3805 -0.0438  0.0135
    1ION     NA69668  25.650  16.644   8.661  0.2614  0.0042  0.0384
    1ION     NA69669  22.804  21.843   3.291 -0.0201  0.1279  0.2715
    1ION     NA69670   2.423  25.664   8.867  0.0977  0.2564  0.0913
    1ION     NA69671  27.870  17.894   2.570 -0.4142 -0.2249  0.0181
    1ION     NA69672  23.690  15.005   6.187 -0.2418  0.0960 -0.0640
    1ION     NA69673  26.443  18.179   7.814 -0.0889 -0.1226  0.2121
    1ION     NA69674   6.585   4.590   7.416 -0.0248 -0.0017 -0.1609
    1ION     NA69675  22.102  26.372   2.679  0.0603  0.1713 -0.1724
    1ION     NA69676  27.511  24.816   0.666  0.2862 -0.1463  0.2281
    1ION     NA69677  14.519  25.276   3.358 -0.0362  0.3403 -0.2820
    1ION     NA69678  10.276   8.719   1.851  0.2988  0.0389 -0.3279
    1ION     NA69679  15.349  19.588   6.914  0.1000 -0.0746  0.1287
    1ION     NA69680  16.895  21.575   8.017 -0.0429 -0.0969  0.0702
    1ION     NA69681  20.940  10.272   6.565 -0.1882 -0.0458  0.0086
    1ION     NA69682   8.792   0.090   6.902  0.1198  0.1686  0.0037
    1ION     NA69683   2.107  11.272   7.876  0.1330 -0.2973  0.3972
    1ION     NA69684  12.860   5.719   8.739 -0.0885  0.3344 -0.1597
    1ION     NA69685  16.078  20.296   9.259  0.2212 -0.0691  0.4256
    1ION     NA69686  29.191  29.792   6.743 -0.1772  0.2881 -0.0242
    1ION     NA69687  15.932  16.088   2.088  0.0418 -0.1639 -0.0185
    1ION     NA69688  11.122  26.215   1.897 -0.1026  0.2177 -0.1319
    1ION     NA69689  23.871  18.541   0.485  0.1305 -0.0204  0.0276
    1ION     NA69690   4.119  19.943   7.963 -0.1332  0.0019 -0.1333
    1ION     NA69691  25.221   3.050   8.959  0.0371  0.0742 -0.0263
    1ION     NA69692  14.827  22.604   9.286  0.0617 -0.0050  0.1301
    1ION     NA69693  10.021  10.091   2.935  0.1241  0.2788  0.2110
    1ION     NA69694   3.059   1.955   0.539 -0.0771  0.0678 -0.2187
    1ION     NA69695   9.512  16.533   7.394  0.2639  0.3831 -0.1502
    1ION     NA69696  21.510  27.812   6.702 -0.0561  0.1348 -0.0401
    1ION     NA69697  23.054   2.880   8.621 -0.1926 -0.0868 -0.1219
    1ION     NA69698  11.771  21.114   8.221 -0.0727  0.3821  0.3457
    1ION     NA69699  13.102  29.454   2.911  0.3469 -0.0467  0.0416
    1ION     NA69700  24.880   3.667   6.769  0.0112 -0.1123 -0.2564
    1ION     NA69701   0.524  26.918   1.475 -0.1537 -0.3162 -0.4305
    1ION     NA69702  23.052  19.185   1.577  0.2002  0.0200  0.1427
    1ION     NA69703  17.487  14.034   6.716  0.2087  0.0155  0.3517
    1ION     NA69704  12.185  23.140   9.022 -0.2805  0.0461 -0.1908
    1ION     NA69705   2.776   0.463   7.752  0.0099  0.3045  0.1467
    1ION     NA69706   7.529   4.082   2.563  0.0048 -0.1759 -0.0072
    1ION     NA69707   4.916  20.820   7.118 -0.0307  0.3371  0.0952
    1ION     NA69708  13.469  16.326   8.228 -0.1924  0.3677 -0.4729
    1ION     NA69709  26.632  27.312   2.521  0.0312 -0.0130  0.2694
    1ION     NA69710   4.947  21.634   5.492  0.0186 -0.0673  0.0905
    1ION     NA69711  11.941   9.152   8.055 -0.0496 -0.3220  0.0506
    1ION     NA69712  25.139   0.552   8.886 -0.0129  0.1417  0.0381
    1ION     NA69713  24.468  11.356   9.319 -0.1041 -0.0535  0.0943
    1ION     NA69714  22.665  23.261   6.292  0.0774 -0.0028  0.1317
    1ION     NA69715  24.726  14.557   6.506 -0.2985 -0.2046  0.0476
    1ION     NA69716   3.153   0.179   2.652  0.2137 -0.0102  0.0357
    1ION     NA69717  16.507  24.114   7.922 -0.0070 -0.0090 -0.1540
    1ION     NA69718  16.585  23.723   9.226  0.3455  0.1405 -0.2197
    1ION     NA69719  11.780  29.514   1.664  0.0314  0.0953  0.1180
    1ION     NA69720  11.320  27.367   8.062 -0.4968 -0.3111 -0.1318
    1ION     NA69721   0.311  19.716   2.249  0.1492  0.0533 -0.2600
    1ION     NA69722  14.038  25.391   6.359 -0.0275 -0.0646 -0.3037
    1ION     NA69723  19.012   4.588   2.702 -0.0792  0.0283 -0.0671
    1ION     NA69724  17.179  16.599   0.554 -0.0952 -0.1946  0.0594
    1ION     NA69725   6.397   7.942   2.155 -0.0969  0.1071 -0.2291
    1ION     NA69726  27.549   3.541   2.654  0.0266  0.0062  0.1211
    1ION     NA69727  17.031  17.689   6.745  0.2432 -0.3915 -0.1435
    1ION     NA69728   1.424  20.078   0.255 -0.0949  0.3539 -0.1275
    1ION     NA69729   4.945   7.764   3.485 -0.0832  0.2596 -0.0055
    1ION     NA69730  21.472  23.848   1.738  0.0744  0.0486  0.2618
    1ION     NA69731  25.744   9.830   6.303 -0.1247 -0.0347 -0.0637
    1ION     NA69732  25.711  15.434   2.589  0.1492 -0.1911 -0.0522
    1ION     NA69733  20.988   1.223   2.798 -0.1462 -0.1765  0.3329
    1ION     NA69734  24.845   7.954   2.834 -0.0152  0.1505 -0.0236
    1ION     NA69735  14.261  12.221   6.661  0.1824  0.0018 -0.0154
    1ION     NA69736  20.076  19.554   8.347  0.1162  0.0365 -0.2024
    1ION     NA69737  10.612  20.663   6.350 -0.1709  0.1419  0.0546
    1ION     NA69738  20.101  24.852   8.736  0.2860 -0.1771 -0.1423
    1ION     NA69739   2.625  25.004   0.612 -0.2702 -0.0204 -0.0167
    1ION     NA69740  26.096  14.980   7.875  0.2184 -0.1345 -0.1920
    1ION     NA69741  29.157   1.413   0.536 -0.0487 -0.0404 -0.1575
    1ION     NA69742  23.254  14.136   7.862 -0.0561  0.0519  0.1024
    1ION     NA69743  21.425  18.953   3.028 -0.2326 -0.0224 -0.0548
    1ION     NA69744   8.017   5.980   0.195 -0.0382  0.1271 -0.2661
    1ION     NA69745  19.318   7.893   6.300 -0.1308 -0.0503 -0.1017
    1ION     NA69746   5.258   0.508   3.343  0.0460  0.2187 -0.1522
    1ION     NA69747  18.109   9.605   7.841  0.1148 -0.1828 -0.0690
    1ION     NA69748  25.319  18.410   2.458  0.1047 -0.1708 -0.1410
    1ION     NA69749  10.906  19.636   0.916 -0.0189 -0.0814 -0.0610
    1ION     NA69750   8.732  15.161   8.806 -0.1893  0.2443 -0.3589
    1ION     NA69751  19.216   8.268   9.388 -0.0706  0.0736 -0.1329
    1ION     NA69752  25.297  28.663   6.863  0.0030 -0.0133 -0.1000
    1ION     NA69753  21.942  19.250   6.829 -0.3315 -0.0559  0.0643
    1ION     NA69754  14.309  17.618   9.254 -0.1989 -0.1118  0.0803
    1ION     NA69755   1.817  16.440   0.974 -0.1139 -0.1436 -0.0857
    1ION     NA69756  29.153   5.255   8.849  0.3154  0.1883  0.2197
    1ION     NA69757  19.916   3.778   2.197 -0.2406 -0.2545  0.0922
    1ION     NA69758  18.400  23.892   8.538 -0.2169  0.0300 -0.1177
    1ION     NA69759  12.780  29.119   0.618 -0.2047 -0.2407 -0.1458
    1ION     NA69760   3.648   3.529   3.451 -0.1975 -0.3151  0.1535
    1ION     NA69761   7.148  14.737   2.671 -0.0139  0.0145 -0.2609
    1ION     NA69762  29.637  10.212   6.975  0.0125  0.0100 -0.0314
    1ION     NA69763  15.551   4.539   8.480 -0.2021  0.0314  0.1289
    1ION     NA69764   5.686  22.802   0.316 -0.0086 -0.0549  0.1017
    1ION     NA69765  17.254  16.942   7.266  0.1428 -0.0056  0.1164
    1ION     NA69766  20.644  27.310   6.709  0.0474  0.0054 -0.0100
    1ION     NA69767  19.449  20.132   2.817  0.0872 -0.1899 -0.1038
    1ION     NA69768  10.856  15.762   8.893 -0.1817  0.3795 -0.0505
    1ION     NA69769   0.790  18.199   0.921  0.1366 -0.2967 -0.2317
    1ION     NA69770   1.738  29.546   8.952  0.1433 -0.1200 -0.1867
    1ION     NA69771  13.715  20.717   7.507 -0.1186 -0.4836  0.0597
    1ION     NA69772  12.173  24.809   8.361 -0.0124  0.0540 -0.1625
    1ION     NA69773  28.942  10.993   6.977 -0.1120  0.0461  0.0438
    1ION     NA69774  26.739  23.640   7.485 -0.2114  0.0762  0.0970
    1ION     NA69775  26.791  16.020   7.084 -0.0471  0.1703  0.4410
    1ION     NA69776  13.926  28.335   7.505  0.2053  0.0458 -0.1245
    1ION     NA69777   3.432  26.424   2.062  0.2185  0.2206  0.0971
    1ION     NA69778   8.423  27.832   6.893 -0.0871  0.0286  0.0086
    1ION     NA69779  23.205  12.567   8.633  0.0152  0.2406 -0.1942
    1ION     NA69780   2.536   9.333   1.875  0.0455  0.2549 -0.0097
    1ION     NA69781  15.859  11.088   7.765 -0.0753 -0.3258  0.1510
    1ION     NA69782  13.114  17.926   1.299 -0.1708  0.2578  0.1111
    1ION     NA69783  17.657  13.423   8.456  0.2079 -0.0169 -0.1158
    1ION     CL69784  26.239   5.524   1.136 -0.0941  0.1433  0.1180
    1ION     CL69785  12.744  12.285   2.349 -0.1878  0.2134  0.3950
    1ION     CL69786   6.996  13.178   2.185 -0.3247  0.0753 -0.2836
    1ION     CL69787  11.992  13.097   0.582 -0.1494  0.3864  0.0254
    1ION     CL69788  18.368  18.961   7.990 -0.0956 -0.1108 -0.1375
    1ION     CL69789   4.063   0.575   1.650 -0.1400 -0.2320  0.0958
    1ION     CL69790   9.528  17.925   8.326 -0.0556 -0.0305  0.0817
    1ION     CL69791  27.956  11.660   1.827 -0.0208 -0.2468 -0.0675
    1ION     CL69792   0.322   6.435   7.398  0.0331  0.1866 -0.0366
    1ION     CL69793  18.874   1.649   2.502 -0.2953  0.0852  0.1085
    1ION     CL69794  18.164  11.694   8.237 -0.2500 -0.0362  0.1520
    1ION     CL69795  11.145   2.460   8.654 -0.1330  0.2005  0.0303
    1ION     CL69796   8.323  22.396   8.309  0.0709 -0.0239 -0.1473
    1ION     CL69797   1.920  16.973   9.010  0.0041  0.4418  0.1273
    1ION     CL69798  25.143  21.461   2.759 -0.1189  0.3348  0.2376
    1ION     CL69799  28.756  17.492   1.440 -0.1637  0.0739 -0.1380
    1ION     CL69800   2.010  14.856   6.726 -0.0417  0.1451 -0.1043
    1ION     CL69801  25.934   3.833   7.105 -0.1511 -0.1206  0.1684
    1ION     CL69802   8.214  27.539   9.167  0.0474 -0.0221 -0.0638
    1ION     CL69803  24.956  27.331   2.555 -0.0486 -0.1657  0.0981
    1ION     CL69804  28.537  29.613   7.845  0.1200 -0.1402  0.0042
    1ION     CL69805  19.219   2.896   7.600  0.3143  0.1766 -0.2277
    1ION     CL69806  29.731  16.181   0.386  0.1537  0.1561  0.0130
    1ION     CL69807   4.536  22.930   6.739  0.2916  0.0658  0.1774
    1ION     CL69808  27.024   7.329   7.371 -0.2796 -0.0448  0.0671
    1ION     CL69809  17.897   4.576   7.247 -0.0275  0.1370 -0.0161
    1ION     CL69810  27.732  28.840   7.340 -0.1249  0.2830  0.0683
    1ION     CL69811  27.527  14.816   8.118 -0.0418 -0.1578  0.1506
    1ION     CL69812  20.163  11.594   8.324  0.1204  0.0024  0.2785
    1ION     CL69813  20.656   1.050   2.195 -0.0661 -0.0598 -0.0801
    1ION     CL69814  24.474  19.113   8.304  0.0690  0.0128 -0.2477
    1ION     CL69815   8.890  28.947   9.059 -0.1367 -0.0032 -0.0148
    1ION     CL69816  21.160  26.083   7.387 -0.1539  0.1687 -0.1740
    1ION     CL69817   8.434  14.852   2.487 -0.1173  0.0222 -0.2637
    1ION     CL69818   0.517  17.505   1.937 -0.3086 -0.1924 -0.0751
    1ION     CL69819   4.737   4.530   2.939 -0.1024 -0.0040 -0.0577
    1ION     CL69820   6.611  17.025   0.454 -0.0378 -0.1426  0.1329
    1ION     CL69821   2.839  25.619   8.579 -0.0771  0.1644  0.2406
    1ION     CL69822  17.326  18.942   8.777  0.0478  0.1209 -0.1049
    1ION     CL69823  17.836  11.519   7.571 -0.0013 -0.0783 -0.2862
    1ION     CL69824   6.766   8.262   2.314  0.2976  0.0098 -0.0591
    1ION     CL69825  24.856  11.446   9.023 -0.3871 -0.0626 -0.4356
    1ION     CL69826  18.678  16.335   8.330  0.1492 -0.0710  0.1856
    1ION     CL69827  29.569  21.858   9.187 -0.0861 -0.1162  0.0223
    1ION     CL69828  23.378  15.896   8.773  0.0662 -0.0768  0.0199
    1ION     CL69829  23.442  18.954   0.406  0.0886  0.0043  0.4256
    1ION     CL69830  23.066  13.833   8.220 -0.2558  0.0241 -0.1311
    1ION     CL69831   8.263  29.812   8.143 -0.1536 -0.3971 -0.2373
    1ION     CL69832  26.128   9.111   1.634  0.1741 -0.1397 -0.1477
    1ION     CL69833  20.008  24.360   1.527  0.1738 -0.0392 -0.1480
    1ION     CL69834   0.188  25.461   9.382 -0.1855 -0.1164  0.1798
    1ION     CL69835   2.932  15.942   8.436  0.0252 -0.0379  0.1376
    1ION     CL69836   9.794   2.035   1.047 -0.3758 -0.2371 -0.3294
    1ION     CL69837  16.181  22.971   8.071 -0.0199  0.0399 -0.2100
    1ION     CL69838   9.675  25.496   6.614  0.0153 -0.2120  0.1957
    1ION     CL69839  27.852   0.962   2.484  0.2959  0.2121  0.0408
    1ION     CL69840   7.370  23.035   6.304 -0.0521 -0.1873  0.1579
    1ION     CL69841  17.024  24.104   7.885 -0.2529  0.2915  0.1865
    1ION     CL69842  20.636  15.841   9.138  0.0490 -0.2825 -0.1383
    1ION     CL69843   1.302  26.180   6.821  0.2497 -0.0772  0.1801
    1ION     CL69844   5.219  16.821   7.903 -0.1493 -0.1983 -0.3124
    1ION     CL69845   0.916  27.489   1.400 -0.2024  0.2314 -0.0881
    1ION     CL69846  20.692   1.614   8.251  0.1500  0.0116 -0.0520
    1ION     CL69847   9.425   7.366   8.275  0.0134 -0.2063 -0.1741
    1ION     CL69848   0.089  26.004   7.752  0.0311 -0.1702 -0.1977
    1ION     CL69849   5.598   0.453   0.119  0.1071 -0.3055 -0.0255
    1ION     CL69850  19.129  12.108   7.418 -0.0225 -0.3139 -0.1661
    1ION     CL69851  12.832  10.818   7.687  0.0338 -0.0251  0.1449
    1ION     CL69852   1.987   9.326   8.825  0.1067  0.3124  0.0721
    1ION     CL69853   0.048   5.078   2.185  0.1591 -0.0769  0.0396
    1ION     CL69854  16.745  16.917   7.336 -0.0602  0.1260  0.1087
    1ION     CL69855   5.340   3.982   9.393 -0.0153  0.0361  0.1258
    1ION     CL69856   0.704   0.597   8.973  0.0033 -0.3454  0.1068
    1ION     CL69857   8.022   2.462   9.055 -0.0202 -0.1372  0.0241
    1ION     CL69858  20.097  10.070   1.278 -0.1755 -0.0928 -0.0134
    1ION     CL69859   5.639  29.528   1.043  0.3100  0.0802 -0.0430
    1ION     CL69860   4.313  15.687   1.366 -0.0838  0.1093 -0.0121
    1ION     CL69861  14.413  14.860   7.625  0.2005  0.0963 -0.1985
    1ION     CL69862  17.042  28.001   0.617  0.0657  0.1402 -0.1035
    1ION     CL69863  14.127  25.750   0.797 -0.0932 -0.2959 -0.4362
    1ION     CL69864  23.363  23.015   8.493 -0.0063 -0.0052 -0.0477
    1ION     CL69865   0.959   5.036   1.800 -0.0823 -0.0243 -0.1452
    1ION     CL69866  13.563  18.507   0.901 -0.1232 -0.0043  0.0707
    1ION     CL69867   6.508  23.571   0.213  0.1891 -0.1273  0.1113
    1ION     CL69868   4.612  21.430   1.170 -0.1144  0.1880 -0.3477
    1ION     CL69869  13.484   9.943   7.904 -0.0299 -0.2091  0.0769
    1ION     CL69870  24.493   7.637   1.441  0.0973 -0.1640  0.1897
    1ION     CL69871  17.493   2.638   2.051 -0.1037  0.2256 -0.0007
    1ION     CL69872  25.438  21.075   1.734 -0.0394  0.0079 -0.0734
    1ION     CL69873   9.782   0.763   1.411  0.2164 -0.0514  0.5340
    1ION     CL69874  27.140  29.811   0.438 -0.0415  0.1072  0.0629
    1ION     CL69875  18.465   9.905   8.060 -0.0323  0.1611 -0.0521
    1ION     CL69876   8.375  26.957   2.048 -0.0696 -0.4488  0.1488
    1ION     CL69877  15.960  13.505   7.342  0.0841 -0.2129 -0.3333
    1ION     CL69878  10.561  27.102   2.716  0.0992 -0.0568  0.1715
    1ION     CL69879  26.323  26.932   0.301 -0.0497  0.3580  0.0028
    1ION     CL69880  28.765  18.948   8.959  0.0968 -0.0515  0.3631
    1ION     CL69881  17.003  22.827   7.691 -0.0100 -0.2432  0.2939
    1ION     CL69882  23.187  19.653   1.705  0.0889 -0.0016 -0.0288
    1ION     CL69883  26.047  11.885   0.004  0.1525 -0.0093  0.0633
    1ION     CL69884   1.234  21.609   6.712  0.2810 -0.3187  0.0390
    1ION     CL69885  14.718  16.049   8.671  0.2621 -0.1768 -0.0294
    1ION     CL69886  25.573  11.415   8.375 -0.1772 -0.1725  0.1666
    1ION     CL69887  16.282  27.020   8.080  0.0069  0.0515 -0.0494
    1ION     CL69888  11.111  19.957   1.479 -0.0061  0.2217 -0.0134
    1ION     CL69889  19.942  19.587   7.413 -0.0995  0.1307 -0.3043
    1ION     CL69890   5.237   2.880   8.556  0.0528 -0.2803  0.1633
    1ION     CL69891  26.205  15.918   6.971 -0.1429 -0.1467  0.3365
    1ION     CL69892  12.720  22.094   0.842 -0.1208  0.1821 -0.1404
    1ION     CL69893   2.181  29.797   9.051 -0.2960 -0.0857 -0.1086
    1ION     CL69894   9.168   1.468   7.913  0.1613  0.0739 -0.2732
    1ION     CL69895  14.820  10.181   1.864  0.0411 -0.2456 -0.0464
    1ION     CL69896   7.722  15.211   7.686 -0.1827 -0.0300  0.2392
    1ION     CL69897   4.486  24.917   0.974  0.0704 -0.1631  0.0689
    1ION     CL69898   2.192   3.549   1.683 -0.0091  0.0090 -0.0802
    1ION     CL69899   3.241   9.758   7.397 -0.1634  0.0538 -0.0468
    1ION     CL69900   1.482   4.363   2.650  0.0197  0.0292  0.1801
    1ION     CL69901  19.881  15.484   7.476 -0.0559  0.3380  0.0068
    1ION     CL69902  14.847  16.209   1.346  0.0849  0.0681  0.1248
    1ION     CL69903   5.259   1.963   2.426  0.0113 -0.3738  0.0977
    1ION     CL69904  26.622  13.728   7.160 -0.1185 -0.2029  0.3854
    1ION     CL69905   3.071   8.155   7.944 -0.0590 -0.0957  0.3190
    1ION     CL69906  12.516  15.462   7.860  0.2029  0.1323  0.1387
    1ION     CL69907  27.088  14.097   8.610  0.1625  0.0451  0.2177
    1ION     CL69908  22.529  12.823   6.663  0.4051 -0.1810  0.2852
    1ION     CL69909  22.065  12.459   1.288  0.0981 -0.2157  0.1647
    1ION     CL69910  25.949  18.025   7.902 -0.0716 -0.0553  0.2837
    1ION     CL69911  18.989  10.332   7.657 -0.1343  0.2748 -0.3206
    1ION     CL69912  15.398   7.826   8.909 -0.2491  0.0278 -0.0600
    1ION     CL69913  18.103  28.895   2.908  0.2505 -0.3531  0.0538
    1ION     CL69914  20.764   3.141   2.181  0.1035 -0.0292  0.2331
    1ION     CL69915  13.000  15.261   8.024  0.0383 -0.2171 -0.0389
    1ION     CL69916   4.306  19.643   0.385 -0.2895  0.0974  0.2387
    1ION     CL69917  10.606  23.943   1.117  0.1411  0.0116 -0.1888
    1ION     CL69918  17.141   9.051   1.733  0.2226  0.1129  0.3851
    1ION     CL69919  21.608   9.158   0.596 -0.0778  0.4744 -0.0470
    1ION     CL69920   9.928  27.485   8.644  0.2615 -0.0257  0.1317
    1ION     CL69921  20.826  28.765   7.718  0.1390 -0.1023 -0.0126
    1ION     CL69922  20.953  10.205   0.985  0.0863 -0.1466  0.0260
    1ION     CL69923  16.244  23.287   2.547  0.3843 -0.3756  0.4282
    1ION     CL69924   4.365  28.303   2.202  0.0238 -0.0311  0.0035
    1ION     CL69925   9.761  29.213   2.639  0.3087  0.0137  0.1918
    1ION     CL69926  10.134   9.260   1.761  0.0937  0.0576  0.3067
    1ION     CL69927  10.583  18.666   8.552  0.0235  0.3548  0.1108
    1ION     CL69928  27.875  21.167   7.827 -0.2999  0.3277 -0.3406
    1ION     CL69929   6.675  25.341   2.488  0.0290  0.2586  0.0649
    1ION     CL69930  23.835  12.141   0.827 -0.2547  0.2000 -0.1624
    1ION     CL69931  11.128  25.755   2.068 -0.2247 -0.0284  0.0128
    1ION     CL69932  19.600  27.082   8.714 -0.1640  0.1934 -0.0369
    1ION     CL69933   5.180  12.799   6.671  0.0695  0.2674  0.1249
    1ION     CL69934  11.235  19.902   8.728 -0.0831  0.2949 -0.1353
    1ION     CL69935  18.917   5.265   9.118  0.0765  0.0992 -0.0141
    1ION     CL69936  17.663  10.710   2.000 -0.2649 -0.4641  0.0154
    1ION     CL69937   7.449  28.597   7.542  0.0984 -0.0306 -0.4305
    1ION     CL69938  12.012   4.093   2.436  0.0803 -0.1732 -0.1108
    1ION     CL69939   3.903   2.543   0.034  0.1438 -0.2147 -0.0298
    1ION     CL69940  27.549  27.672   2.504 -0.2974 -0.0797 -0.0907
    1ION     CL69941  16.169  23.725   1.617 -0.0209 -0.1395 -0.2015
    1ION     CL69942  22.049   0.571   0.510 -0.2597 -0.1250  0.1785
    1ION     CL69943   3.657  19.001   8.722  0.1263 -0.0213  0.2468
    1ION     CL69944  13.861  12.948   8.399 -0.0393  0.3646 -0.2129
    1ION     CL69945   5.989  22.682   1.499  0.3863 -0.1322  0.1506
    1ION     CL69946  16.987  19.049   1.713  0.2317  0.0007  0.4193
    1ION     CL69947  24.262  21.838   9.228  0.0158  0.0246  0.2846
    1ION     CL69948   8.313  19.554   9.331  0.1228 -0.0134  0.1111
    1ION     CL69949   9.865  18.855   8.771  0.0415 -0.1554 -0.0097
    1ION     CL69950  16.432  16.078   0.921 -0.1509 -0.1212 -0.0457
    1ION     CL69951  10.878  22.032   7.358 -0.1127  0.2380  0.0730
    1ION     CL69952  24.694   4.686   7.471 -0.0394  0.3444 -0.0845
    1ION     CL69953  18.689  11.503   0.789 -0.0266 -0.0611  0.0892
    1ION     CL69954  23.741  26.770   1.487 -0.0827 -0.0416 -0.1605
    1ION     CL69955   4.725   2.377   0.285 -0.3926  0.0288  0.2733
    1ION     CL69956  22.248  12.956   7.614  0.3205  0.2611 -0.1370
    1ION     CL69957   1.324  29.272   9.003 -0.0011 -0.1030  0.1492
    1ION     CL69958  22.537   3.658   7.500  0.1064  0.2289  0.0538
    1ION     CL69959   2.099   3.074   7.298  0.0677 -0.0057  0.0534
    1ION     CL69960   5.596   5.610   2.944  0.1225 -0.1591  0.1771
    1ION     CL69961   6.492  18.814   6.749 -0.0732 -0.1396  0.3302
    1ION     CL69962  24.765   1.305   7.202  0.0747 -0.1324 -0.2190
    1ION     CL69963  11.056   5.476   2.845  0.0989  0.2781  0.0326
    1ION     CL69964  28.240  28.191   7.530  0.0328 -0.1734  0.1538
    1ION     CL69965  11.568  27.992   7.026  0.2462  0.1459  0.0840
    1ION     CL69966  15.647  25.405   2.328  0.0568  0.1674  0.2052
    1ION     CL69967  23.193  16.708   1.586 -0.1001 -0.0392 -0.1033
    1ION     CL69968  10.077   8.576   8.269  0.0328 -0.0204 -0.1757
    1ION     CL69969  12.682  10.666   9.158  0.2190 -0.0414  0.0268
    1ION     CL69970  26.135  27.475   0.142  0.1037 -0.1599  0.0142
    1ION     CL69971  15.901   0.195   8.423  0.0987 -0.1027  0.1313
    1ION     CL69972  29.284  10.533   6.856  0.0357  0.0894 -0.0837
    1ION     CL69973  28.662   1.219   2.118  0.0330 -0.1135  0.1876
    1ION     CL69974  28.934   5.342   2.213  0.0656  0.0565  0.2172
    1ION     CL69975  12.431  11.578   0.089 -0.0934  0.0066 -0.1175
    1ION     CL69976  12.851   6.210   1.284  0.1282 -0.1517  0.1268
    1ION     CL69977  13.294  23.353   7.600 -0.1504 -0.0831  0.1429
    1ION     CL69978  22.318  17.565   7.247  0.1312 -0.0304 -0.1472
    1ION     CL69979  11.744  24.042   1.697 -0.1114  0.1426  0.0491
    1ION     CL69980  22.724   6.107   1.922 -0.0245 -0.2127 -0.0229
    1ION     CL69981  27.557  23.774   7.361 -0.3469 -0.2627  0.0005
    1ION     CL69982   5.072  29.694   2.404 -0.1136 -0.2235  0.0188
    1ION     CL69983  19.172  19.035   7.375 -0.0431 -0.2871 -0.2812
    1ION     CL69984  19.266  19.140   8.632 -0.0548 -0.0786  0.0418
    1ION     CL69985   9.549  22.366   7.121 -0.3654 -0.3711 -0.0419
    1ION     CL69986  21.388  26.990   7.884 -0.2399 -0.2357  0.1302
    1ION     CL69987   4.535  14.760   6.566 -0.3867  0.0025  0.0749
    1ION     CL69988  16.256   9.945   1.685 -0.0069  0.2297 -0.0159
    1ION     CL69989  11.715  23.921   6.835 -0.2105  0.3263  0.2135
    1ION     CL69990  29.766   3.670   7.535 -0.0916  0.1717  0.0129
    1ION     CL69991  25.088  27.999   7.338  0.2937  0.1073 -0.1130
    1ION     CL69992  13.610  21.193   7.649  0.1086  0.1628  0.1486
    1ION     CL69993  22.070  26.421   2.106 -0.1266 -0.3707  0.3690
    1ION     CL69994  13.078  17.575   1.707  0.3062  0.1015  0.0820
    1ION     CL69995   3.550  23.812   8.561 -0.0721 -0.1214 -0.0542
    1ION     CL69996  15.089  14.631   8.766  0.2745 -0.0376  0.0064
    1ION     CL69997  16.713   6.289   1.992  0.0572  0.2027 -0.2866
    1ION     CL69998   4.818   4.068   7.477 -0.2747  0.1119  0.3761
    1ION     CL69999  12.830  18.275   7.102  0.0788  0.1983  0.0877
    1ION     CL70000   0.786  17.499   0.357 -0.0697 -0.0741  0.0342
    1ION     CL70001   5.939  12.781   8.779  0.1293 -0.2370  0.4051
    1ION     CL70002   7.190  22.831   0.167  0.3686 -0.2193  0.0847
    1ION     CL70003  12.690  15.251   8.800  0.0781  0.0456 -0.1054
    1ION     CL70004  18.473  15.094   6.986  0.1647 -0.0028 -0.0348
    1ION     CL70005  10.542  16.300   8.265 -0.4385  0.1242  0.5654
    1ION     CL70006  29.151   0.880   0.405  0.0631 -0.0889 -0.0889
    1ION     CL70007  20.557   4.041   0.706 -0.2909  0.1550 -0.2763
    1ION     CL70008   1.819  16.984   0.999  0.0365  0.2819 -0.0594
    1ION     CL70009  16.695  18.847   0.281 -0.2966 -0.1033 -0.1181
    1ION     CL70010   3.428  27.098   7.555  0.0306  0.2544 -0.0891
    1ION     CL70011  10.452  15.894   9.230 -0.1604  0.0931 -0.2426
    1ION     CL70012   3.739  18.274   0.713 -0.3054 -0.0407 -0.2520
    1ION     CL70013  25.961  14.856   8.469  0.0982  0.3170 -0.1234
    1ION     CL70014  16.291  14.957   7.124  0.2105  0.2139  0.2473
    1ION     CL70015  25.218  16.571   6.503  0.3096 -0.0056 -0.0906
    1ION     CL70016   4.820   7.211   0.109 -0.3294 -0.1925  0.0257
    1ION     CL70017   9.144  16.187   7.444  0.0093 -0.0189  0.0809
    1ION     CL70018   1.793  28.612   2.257  0.3747 -0.1803 -0.0054
    1ION     CL70019   8.771  23.762   7.293 -0.0191  0.2232 -0.2045
    1ION     CL70020  27.919  12.525   8.404  0.0853  0.1786  0.2420
    1ION     CL70021  16.720   9.990   1.950 -0.0359 -0.4580  0.0718
    1ION     CL70022  25.302   3.964   1.759  0.0595  0.2198  0.4107
    1ION     CL70023  19.580  21.520   8.936  0.1594 -0.0857 -0.2450
    1ION     CL70024   4.104  11.096   0.386  0.2673 -0.1132 -0.1866
    1ION     CL70025   5.873  21.380   6.335 -0.0986  0.0869  0.1133
    1ION     CL70026  21.043  23.082   7.672  0.1949  0.0515  0.1689
    1ION     CL70027   1.541   7.981   9.020 -0.1623 -0.0466  0.0948
    1ION     CL70028  25.094  18.662   0.968 -0.2563  0.0629 -0.3377
    1ION     CL70029  11.207  19.525   0.535 -0.1810  0.0188  0.0179
    1ION     CL70030  20.090  14.528   7.184  0.0362 -0.2956  0.1108
    1ION     CL70031  29.772  19.461   7.581  0.0156  0.3486 -0.2083
    1ION     CL70032   2.629  21.931   6.336  0.0645 -0.1536  0.0046
    1ION     CL70033  28.687  26.376   7.136 -0.2466  0.0381 -0.1768
    1ION     CL70034  23.996  27.554   7.201 -0.0512 -0.0605  0.2532
    1ION     CL70035  24.744   8.050   0.730  0.3804  0.0818 -0.2260
    1ION     CL70036  13.116   1.518   9.162 -0.1262  0.2414 -0.0830
    1ION     CL70037   1.933  20.650   6.526  0.0192 -0.2606  0.3763
    1ION     CL70038  24.987   7.243   7.605 -0.2174  0.3825 -0.0728
    1ION     CL70039  20.770  20.934   9.056 -0.0863 -0.0961  0.1597
    1ION     CL70040   7.641  14.807   8.785 -0.0287 -0.0610 -0.2508
    1ION     CL70041   8.312  15.191   9.109  0.2523 -0.0838 -0.0198
    1ION     CL70042  25.119  21.555   8.238 -0.0186  0.1580  0.1440
    1ION     CL70043   2.937  27.060   7.070  0.0103  0.0570  0.0670
    1ION     CL70044   4.733   0.607   2.411  0.3517 -0.3390  0.3346
    1ION     CL70045  10.706  21.006   7.397  0.1304 -0.0078 -0.0502
    1ION     CL70046  13.584  14.639   7.911  0.0093  0.1265  0.0942
    1ION     CL70047   1.903  22.536   8.228 -0.2577 -0.1529  0.3314
    1ION     CL70048  19.207  18.919   1.684 -0.2454 -0.0080  0.0616
    1ION     CL70049  12.382   2.375   8.048  0.2194  0.0998 -0.0786
    1ION     CL70050  29.526  22.958   1.032 -0.0047 -0.0747  0.0743
    1ION     CL70051  22.033   6.381   8.021 -0.0175 -0.0928 -0.0614
    1ION     CL70052  20.844  19.134   1.931 -0.3053 -0.2078  0.2595
    1ION     CL70053  18.749  12.776   7.047 -0.3263 -0.0557 -0.4209
    1ION     CL70054  11.660   4.427   8.633 -0.0026 -0.1632 -0.0060
    1ION     CL70055  25.920  14.910   7.341  0.1214 -0.1634  0.0381
    1ION     CL70056  21.718   5.347   9.429 -0.0130  0.1841 -0.1501
    1ION     CL70057  10.932   1.580   7.795 -0.1124 -0.0490 -0.0969
    1ION     CL70058  10.722   3.697   8.153 -0.2149  0.3701  0.0799
    1ION     CL70059  27.657  14.400   1.189 -0.1849 -0.3835  0.0529
    1ION     CL70060  12.291   0.097   8.144  0.0665 -0.1251 -0.0808
    1ION     CL70061  15.085  11.398   8.675 -0.0116 -0.0572  0.1157
    1ION     CL70062  26.447  17.182   9.016  0.0279  0.0956  0.0584
    1ION     CL70063   1.043  11.471   2.188 -0.0638 -0.0652  0.0310
    1ION     CL70064  18.003  24.602   1.419  0.1112  0.1029 -0.0335
    1ION     CL70065   7.815  16.420   6.885  0.1452  0.1809  0.2434
    1ION     CL70066  15.096   2.522   1.754  0.0455  0.3660  0.1387
    1ION     CL70067  23.068  11.960   6.921 -0.3162 -0.0224 -0.2090
    1ION     CL70068   3.449  21.975   0.890 -0.0962 -0.4257  0.0117
    1ION     CL70069  11.609   1.222   0.063  0.3471  0.0510  0.4149
    1ION     CL70070  24.464  26.746   0.760 -0.2333  0.1561  0.1160
    1ION     CL70071  22.758  26.312   2.013  0.2780  0.0393  0.0820
    1ION     CL70072   2.038  19.472   1.782  0.1124  0.0349 -0.1499
    1ION     CL70073   2.301  19.837   9.296  0.0735 -0.2023  0.0451
    1ION     CL70074  10.493  14.914   7.357  0.1784 -0.1424 -0.0576
    1ION     CL70075  28.070  16.290   0.999  0.2154 -0.2766 -0.1462
    1ION     CL70076   7.429  29.112   0.731  0.3322  0.1403  0.1310
    1ION     CL70077  16.567  21.104   1.951 -0.0714  0.0684  0.2620
    1ION     CL70078  22.321  16.640   9.307 -0.4255  0.1295  0.1700
    1ION     CL70079   9.291  17.020   7.417  0.0624  0.0587  0.0978
    1ION     CL70080  20.830   4.646   8.023 -0.4541 -0.1355  0.4481
    1ION     CL70081  26.253  19.318   1.509 -0.0060  0.3246 -0.1617
    1ION     CL70082  16.433  12.374   1.565 -0.1600 -0.3503  0.1786
    1ION     CL70083   0.061  15.001   1.668  0.2867 -0.0983  0.2958
    1ION     CL70084  14.464  26.126   7.209 -0.0512 -0.4289  0.0721
    1ION     CL70085  15.298  10.762   7.679 -0.0462  0.1082 -0.3934
    1ION     CL70086  16.741  16.540   0.324 -0.0713  0.4054  0.2691
    1ION     CL70087  25.864   8.844   7.264 -0.1145 -0.1529 -0.3012
    1ION     CL70088   7.381   1.596   2.350 -0.1745 -0.2873  0.2445
    1ION     CL70089   8.737  23.776   0.637 -0.2448  0.0287 -0.1292
    1ION     CL70090  25.047   4.928   8.300  0.0260  0.0658 -0.0315
    1ION     CL70091  12.742  27.742   8.683  0.2115 -0.3755  0.0271
    1ION     CL70092   9.959   1.292   0.430 -0.1876  0.1727 -0.0207
    1ION     CL70093  27.658  26.927   2.078  0.0275 -0.1688 -0.0787
    1ION     CL70094   3.046   3.725   3.239  0.2094  0.0512  0.3681
    1ION     CL70095   9.824  25.797   0.023 -0.1255  0.2261 -0.4436
    1ION     CL70096  16.068   8.853   0.029  0.2449  0.3334 -0.1415
    1ION     CL70097  24.679  28.318   8.988  0.2170 -0.0213  0.0813
    1ION     CL70098  17.465  21.961   2.348  0.0433  0.0072  0.0255
    1ION     CL70099  16.761  17.802   7.572  0.1292 -0.1275 -0.0409
    1ION     CL70100   2.885  20.637   1.354  0.0417  0.1048  0.1602
    1ION     CL70101  23.605  22.089   7.729  0.2000 -0.1757  0.1080
    1ION     CL70102  25.872   9.922   6.825  0.0002  0.0842  0.0456
    1ION     CL70103   2.745  12.083   7.037 -0.1640  0.4287 -0.2237
    1ION     CL70104   0.461   0.336   9.352 -0.0814 -0.0424 -0.1209
    1ION     CL70105   4.025  23.287   1.752 -0.0451  0.0517  0.1129
    1ION     CL70106  22.076   8.370   0.711  0.0740  0.0757 -0.0502
    1ION     CL70107  18.244   9.550   7.360  0.0104  0.1179  0.2562
    1ION     CL70108  19.695  19.689   2.906 -0.2727  0.0826  0.2639
    1ION     CL70109  18.167  14.456   1.180  0.0362 -0.1917 -0.1984
    1ION     CL70110  17.692   1.175   7.158 -0.0589  0.0950 -0.1298
    1ION     CL70111  20.208   2.668   1.722 -0.1602 -0.0502  0.3611
    1ION     CL70112   6.445   8.350   7.904  0.0781  0.1960 -0.4369
    1ION     CL70113  16.704  24.565   2.601 -0.0187 -0.0953 -0.3281
    1ION     CL70114  23.053  22.359   8.062  0.2523  0.2304 -0.0335
    1ION     CL70115  14.835   4.641   7.260  0.1339  0.1362 -0.0238
    1ION     CL70116   6.311   5.708   7.526 -0.2351 -0.4950  0.2369
    1ION     CL70117  14.547   3.099   7.774  0.3212  0.1465  0.0878
    1ION     CL70118  28.884   9.239   2.088  0.2085  0.0103 -0.0737
    1ION     CL70119  20.010   2.102   9.269 -0.1396  0.0654 -0.0637
    1ION     CL70120   4.751  19.126   6.223  0.1281 -0.1379 -0.2798
    1ION     CL70121   1.220  15.418   8.929  0.2235 -0.1370 -0.1200
    1ION     CL70122  22.663  26.798   8.528  0.1396 -0.0905  0.0998
    1ION     CL70123  10.077   7.894   8.738 -0.0842 -0.1213  0.0193
    1ION     CL70124   5.831  20.985   7.095  0.0587  0.3035  0.1250
    1ION     CL70125   5.074  27.720   1.786 -0.0429  0.2245  0.3909
    1ION     CL70126  11.020   6.034   0.580  0.0869 -0.0987 -0.0438
    1ION     CL70127   1.804  19.775   0.489 -0.1071  0.0521  0.3853
    1ION     CL70128   1.982   6.706   8.488 -0.2536 -0.1814 -0.0214
    1ION     CL70129  28.005   5.573   7.867  0.1526  0.0257  0.0681
    1ION     CL70130  16.063  18.586   7.383  0.3107 -0.0372  0.0161
    1ION     CL70131  17.473   8.052   8.901 -0.2836 -0.1482  0.0328
    1ION     CL70132  21.538   2.336   8.060  0.0400  0.0579 -0.0106
    1ION     CL70133  17.806   2.375   0.098 -0.0453  0.1922 -0.2740
    1ION     CL70134  16.569  21.253   8.175  0.1356  0.1994  0.0606
    1ION     CL70135  27.705   4.056   2.668 -0.1802 -0.2572 -0.1927
    1ION     CL70136  22.230   0.498   1.863 -0.0125  0.0247  0.0191
    1ION     CL70137  25.672  16.900   7.105  0.2085  0.1325  0.0965
    1ION     CL70138   1.168  27.306   0.196  0.1202 -0.0991 -0.1342
    1ION     CL70139   0.377  27.613   2.184  0.0805  0.4074 -0.2135
    1ION     CL70140  19.245   8.722   9.023  0.0930  0.3281  0.0771
    1ION     CL70141  15.773   7.090   7.299 -0.0300 -0.0246  0.0896
    1ION     CL70142  11.527  24.133   0.825  0.2313 -0.1022 -0.3703
    1ION     CL70143   3.268   0.589   7.941 -0.1409  0.3029 -0.2824
    1ION     CL70144   1.149  18.889   7.137 -0.1598 -0.0341  0.0494
    1ION     CL70145  28.176   9.461   1.585  0.0731  0.0856  0.1343
    1ION     CL70146  13.824   0.955   0.173 -0.0535  0.0194  0.1783
    1ION     CL70147  28.841   1.752   0.774  0.1003 -0.0816  0.0988
    1ION     CL70148  28.574   4.149   0.396  0.0299 -0.0350 -0.1493
    1ION     CL70149  23.991  17.373   1.677 -0.2562  0.0638 -0.0733
    1ION     CL70150  15.923  11.427   8.639 -0.2425 -0.0006 -0.3726
    1ION     CL70151  29.283  29.624   7.846 -0.0596  0.1247 -0.1544
    1ION     CL70152  23.452  10.515   2.490  0.0142  0.1902  0.3388
    1ION     CL70153  19.922   7.508   1.726  0.0416 -0.0082  0.2594
    1ION     CL70154  23.977  23.036   2.736  0.1288  0.2287 -0.1272
    1ION     CL70155  13.648  24.857   0.803  0.0756  0.1027 -0.2837
    1ION     CL70156  17.403  13.530   8.845  0.2751 -0.4148 -0.2972
    1ION     CL70157  13.229  19.201   1.490 -0.0855 -0.1989  0.0413
    1ION     CL70158  18.395  12.038   9.437  0.1423  0.0821 -0.3673
    1ION     CL70159   3.741   1.609   2.362 -0.4883  0.0877 -0.1243
    1ION     CL70160  19.550   1.107   7.588  0.0501  0.1034  0.3656
    1ION     CL70161   7.632   5.959   9.318 -0.4955  0.0399 -0.0583
    1ION     CL70162  19.117  22.825   8.582 -0.1479 -0.0653  0.1604
    1ION     CL70163  25.387  22.149   6.883 -0.0225 -0.1434 -0.0667
    1ION     CL70164  16.984   7.979   0.959 -0.0898 -0.1337 -0.1047
    1ION     CL70165   9.829  28.461   0.339 -0.0867  0.1599 -0.1598
    1ION     CL70166  14.100  20.422   7.676  0.1194 -0.0775 -0.2081
    1ION     CL70167   7.276   2.938   2.034 -0.1758 -0.2508 -0.1245
    1ION     CL70168  11.346  13.345   1.328  0.3698 -0.0560 -0.2075
    1ION     CL70169  23.105  23.979   7.770  0.0765  0.2496  0.1193
    1ION     CL70170  27.304   4.038   8.308  0.1981  0.2961 -0.2018
    1ION     CL70171   2.266   8.983   1.640 -0.0225  0.1419  0.1239
    1ION     CL70172  17.208   2.745   7.242 -0.0716  0.5171  0.1727
    1ION     CL70173  11.289  10.358   8.885 -0.2917  0.1840  0.0461
    1ION     CL70174   4.503  17.491   8.261 -0.0231 -0.0576 -0.2247
    1ION     CL70175  21.906   8.633   7.542  0.2999  0.0366 -0.1820
    1ION     CL70176  10.406   6.176   7.818 -0.2314 -0.0530  0.0434
    1ION     CL70177   7.204  25.293   9.344 -0.0735 -0.1535 -0.1700
    1ION     CL70178  24.920  27.276   1.549 -0.2063  0.1078 -0.0449
    1ION     CL70179  12.895  28.257   1.549  0.0933  0.1722  0.0581
    1ION     CL70180   2.885  22.510   1.594  0.0066  0.2850  0.0694
    1ION     CL70181  24.869   5.587   2.549 -0.3269 -0.0514 -0.0083
    1ION     CL70182   7.280   3.389   7.944  0.1369 -0.0753  0.0671
    1ION     CL70183  12.797   7.478   8.474 -0.0950 -0.1739  0.1866
    1ION     CL70184   2.179  12.007   7.960  0.0386  0.2488 -0.1303
    1ION     CL70185   5.594   1.290   1.953  0.1997  0.1936 -0.3473
    1ION     CL70186  13.078  12.745   0.334 -0.0097 -0.0531  0.2876
    1ION     CL70187   1.965   1.189   1.994  0.1049  0.1657  0.0310
    1ION     CL70188  14.198   5.881   0.534 -0.1164  0.2797  0.1309
    1ION     CL70189   1.950  25.083   0.148  0.0018 -0.0228  0.0111
    1ION     CL70190  20.803   8.595   7.614 -0.1732 -0.2143 -0.2743
    1ION     CL70191  28.623  16.333   6.917 -0.0373  0.0023  0.2124
    1ION     CL70192  14.521   9.492   7.779  0.2291  0.0921 -0.0729
    1ION     CL70193  28.641  17.493   8.818  0.1717  0.1865  0.1571
    1ION     CL70194  20.434  19.504   8.655 -0.3073  0.3590 -0.0194
    1ION     CL70195  23.650   5.587   1.719  0.1514  0.1184 -0.0568
    1ION     CL70196  13.185   8.761   2.272  0.3074 -0.3465  0.0708
    1ION     CL70197  14.334  11.935   7.601 -0.0965 -0.1235 -0.0659
    1ION     CL70198  23.941  11.974   0.197 -0.0184  0.0143  0.1380
    1ION     CL70199   5.485  24.161   5.965 -0.1690  0.2070  0.2121
    1ION     CL70200  13.822  27.134   8.251 -0.2141  0.2884  0.2161
    1ION     CL70201  14.060  22.354   6.862  0.2147  0.0738 -0.2599
    1ION     CL70202  24.766  14.452   6.985  0.1205  0.0623  0.0013
    1ION     CL70203  17.450   4.023   6.744 -0.1908  0.1308 -0.1587
    1ION     CL70204   6.881   7.957   0.018  0.0521 -0.0463  0.0207
    1ION     CL70205   3.472  29.556   8.751 -0.2640  0.2846 -0.1417
    1IPC    NC370206  10.512   7.354   7.871  0.2405  0.1213 -0.0731
    1IPC    PO470207  10.667   7.031   7.526 -0.2206 -0.2149 -0.2575
    1IPC    GL170208  10.554   7.134   7.104  0.0424 -0.2049  0.0502
    1IPC    GL270209  10.778   7.188   6.831  0.3590  0.3486 -0.0813
    1IPC    C1B70210  10.808   7.226   6.377 -0.0176 -0.0112 -0.3890
    1IPC    D2B70211  10.626   7.047   5.986  0.0917 -0.1276 -0.0413
    1IPC    D3B70212  10.923   6.901   5.683  0.1003  0.1561  0.0016
    1IPC    C4B70213  11.067   7.077   5.298 -0.0502 -0.0327 -0.3067
    1IPC    NC370214   1.486  14.385   6.219 -0.1621  0.1653 -0.1452
    1IPC    PO470215   1.390  14.202   5.870  0.1378  0.0046  0.0974
    1IPC    GL170216   1.425  14.386   5.473  0.0232 -0.0784 -0.1034
    1IPC    GL270217   1.297  14.249   5.217  0.1163  0.1282  0.1655
    1IPC    C1B70218   1.160  14.193   4.752 -0.1872 -0.2251 -0.0244
    1IPC    D2B70219   1.038  13.884   4.503 -0.1449  0.3402  0.0716
    1IPC    D3B70220   0.805  14.127   4.102  0.1712  0.0663 -0.1896
    1IPC    C4B70221   0.807  14.600   4.039 -0.0278 -0.0123 -0.1650
    1IPC    NC370222   8.800  21.791   6.508 -0.2833 -0.2552 -0.0239
    1IPC    PO470223   8.424  21.857   6.139 -0.1628 -0.0788  0.2578
    1IPC    GL170224   8.419  21.764   5.732  0.0229  0.0200  0.1862
    1IPC    GL270225   8.490  21.801   5.450 -0.0469 -0.1625 -0.0571
    1IPC    C1B70226   8.855  21.901   5.196  0.2146 -0.0124 -0.0338
    1IPC    D2B70227   8.978  22.139   4.737 -0.1769 -0.1716  0.1664
    1IPC    D3B70228   9.228  21.985   4.519  0.0558 -0.3524 -0.0124
    1IPC    C4B70229   9.462  22.226   4.311 -0.0030 -0.1343 -0.0480
    1IPC    NC370230   4.599   3.138   6.762  0.0617  0.0575  0.0734
    1IPC    PO470231   4.274   3.357   7.002  0.1743 -0.0721  0.1426
    1IPC    GL170232   4.439   3.597   6.634 -0.0024 -0.3255  0.2288
    1IPC    GL270233   4.524   3.533   6.384 -0.1627 -0.0873 -0.1314
    1IPC    C1B70234   4.958   3.412   6.251  0.1901  0.0967 -0.0082
    1IPC    D2B70235   5.373   3.692   6.252  0.0155  0.2033  0.1596
    1IPC    D3B70236   5.182   4.113   6.342  0.0540  0.1828  0.1576
    1IPC    C4B70237   4.936   4.457   6.080  0.0166 -0.0955  0.2194
    1IPC    NC370238   2.502  17.216   6.828  0.1155  0.1933 -0.0172
    1IPC    PO470239   2.730  17.582   6.701 -0.2141  0.0330  0.0836
    1IPC    GL170240   2.704  17.696   6.177 -0.1442  0.0548 -0.1085
    1IPC    GL270241   2.539  17.674   5.951 -0.4196  0.1968  0.1087
    1IPC    C1B70242   2.405  17.617   5.537 -0.0567 -0.3363 -0.0395
    1IPC    D2B70243   2.353  17.770   5.095  0.0372  0.0588  0.0092
    1IPC    D3B70244   2.083  17.740   4.682 -0.2035  0.1108  0.4384
    1IPC    C4B70245   2.052  17.248   4.544 -0.2032  0.0944 -0.3084
    1IPC    NC370246   3.453   8.182   7.207  0.1639  0.2037  0.0564
    1IPC    PO470247   3.215   8.279   6.786  0.3542 -0.1265  0.1881
    1IPC    GL170248   2.950   8.070   6.511 -0.2733  0.2874  0.1594
    1IPC    GL270249   2.765   7.982   6.326  0.0256  0.0683  0.0741
    1IPC    C1B70250   2.518   7.932   6.007  0.2530 -0.0373 -0.2296
    1IPC    D2B70251   2.529   7.795   5.586 -0.0532  0.2778  0.3783
    1IPC    D3B70252   2.525   8.098   5.153 -0.1207  0.1367  0.1474
    1IPC    C4B70253   2.629   7.847   4.822  0.0110  0.0725 -0.0034
    1IPC    NC370254  16.712  24.962   7.501 -0.1293 -0.1995 -0.1580
    1IPC    PO470255  17.052  25.305   7.285  0.1054  0.1461  0.0450
    1IPC    GL170256  17.027  25.365   6.880 -0.0200 -0.1902  0.0267
    1IPC    GL270257  17.153  25.511   6.677  0.0958 -0.0931 -0.1890
    1IPC    C1B70258  17.085  25.526   6.219 -0.1806  0.2055 -0.1890
    1IPC    D2B70259  17.035  25.222   5.847  0.3949 -0.2044 -0.0705
    1IPC    D3B70260  16.872  25.542   5.605  0.0270 -0.1963 -0.1995
    1IPC    C4B70261  16.828  25.358   5.186  0.0936 -0.0013  0.1534
    1IPC    NC370262  12.682  28.936   7.389  0.1045  0.4302 -0.1891
    1IPC    PO470263  13.114  29.093   7.332 -0.1579 -0.0077  0.2491
    1IPC    GL170264  13.001  28.971   6.897 -0.2649  0.1382  0.0624
    1IPC    GL270265  12.904  28.881   6.613 -0.0321  0.1868  0.0115
    1IPC    C1B70266  12.836  28.957   6.116  0.0087 -0.0252  0.0001
    1IPC    D2B70267  13.045  29.305   5.916 -0.1155  0.1495 -0.0708
    1IPC    D3B70268  12.939  29.458   5.449 -0.1017 -0.1504 -0.1436
    1IPC    C4B70269  12.582  29.450   5.245 -0.2288  0.0185 -0.0568
    1IPC    NC370270   6.464  15.299   6.520 -0.1552  0.0965  0.0307
    1IPC    PO470271   6.362  14.861   6.529  0.0776 -0.2873 -0.1574
    1IPC    GL170272   6.773  14.906   6.528  0.2141  0.2096  0.1457
    1IPC    GL270273   6.995  14.956   6.382  0.0059 -0.0344 -0.0470
    1IPC    C1B70274   7.249  15.046   6.015  0.3964 -0.0137 -0.0879
    1IPC    D2B70275   7.622  15.267   5.822  0.1193  0.1637 -0.0706
    1IPC    D3B70276   7.893  15.562   5.687 -0.0690  0.2167 -0.1493
    1IPC    C4B70277   8.129  15.512   5.310 -0.2604  0.0072 -0.4459
    1IPC    NC370278   8.617  27.197   7.385  0.2868  0.0500 -0.0020
    1IPC    PO470279   8.306  27.401   7.054  0.0485 -0.4700  0.0142
    1IPC    GL170280   8.413  27.342   6.583  0.4015 -0.2596  0.0982
    1IPC    GL270281   8.380  27.351   6.257 -0.1348 -0.1211 -0.1511
    1IPC    C1B70282   8.274  27.049   5.864  0.1156 -0.0677 -0.0746
    1IPC    D2B70283   8.197  27.045   5.448 -0.1274  0.1775  0.0641
    1IPC    D3B70284   8.479  27.266   5.238  0.2032  0.0576  0.4933
    1IPC    C4B70285   8.590  27.493   4.959  0.0151 -0.1810 -0.3177
    1IPC    NC370286  20.349   4.903   6.696 -0.0098  0.1525 -0.3397
    1IPC    PO470287  20.275   5.173   6.376  0.1123  0.1258  0.0168
    1IPC    GL170288  19.979   5.390   6.186  0.0646 -0.0594 -0.2348
    1IPC    GL270289  19.892   5.397   5.969  0.0380  0.0256  0.0943
    1IPC    C1B70290  19.986   5.598   5.656 -0.1926 -0.1899 -0.1085
    1IPC    D2B70291  19.864   5.871   5.304  0.3098 -0.0169  0.3075
    1IPC    D3B70292  19.641   5.821   4.934 -0.1642 -0.0687 -0.5849
    1IPC    C4B70293  19.434   6.098   4.831 -0.2364  0.1543  0.2455
    1IPC    NC370294  21.636  22.222   7.277  0.0074  0.2082  0.2170
    1IPC    PO470295  21.344  22.318   6.962  0.0330 -0.2196  0.0848
    1IPC    GL170296  21.492  22.245   6.489 -0.1296 -0.0650  0.0491
    1IPC    GL270297  21.476  22.248   6.092 -0.0434 -0.0453  0.1059
    1IPC    C1B70298  21.491  22.344   5.625  0.1667  0.0262 -0.0989
    1IPC    D2B70299  21.673  22.204   5.258  0.1579  0.0624  0.1858
    1IPC    D3B70300  21.546  21.775   4.991  0.0950  0.0374  0.0868
    1IPC    C4B70301  21.447  21.522   5.134  0.2940  0.0357 -0.1406
    1IPC    NC370302  14.818   4.151   7.326  0.0497  0.1556 -0.2166
    1IPC    PO470303  15.095   3.725   7.244 -0.2591 -0.0763 -0.4474
    1IPC    GL170304  15.249   3.848   6.921  0.0174 -0.2952  0.1225
    1IPC    GL270305  15.152   3.948   6.635  0.0996 -0.0138 -0.0775
    1IPC    C1B70306  15.018   3.672   6.272 -0.0900  0.0750  0.0184
    1IPC    D2B70307  15.016   3.269   6.025  0.1126  0.0859  0.0234
    1IPC    D3B70308  14.882   3.499   5.587  0.1654 -0.2603 -0.1646
    1IPC    C4B70309  14.881   3.884   5.466 -0.0255 -0.1562 -0.0510
    1IPC    NC370310  14.033  26.710   7.372  0.1608 -0.0997  0.0562
    1IPC    PO470311  14.204  27.091   7.217 -0.2396 -0.0044  0.0557
    1IPC    GL170312  14.396  27.112   6.797  0.1806  0.0321  0.3404
    1IPC    GL270313  14.412  26.924   6.512  0.0559 -0.0104 -0.1673
    1IPC    C1B70314  14.083  26.990   6.362 -0.1316 -0.1002  0.0102
    1IPC    D2B70315  14.044  27.306   6.090  0.1775  0.3465  0.0987
    1IPC    D3B70316  14.255  26.832   5.962  0.3852 -0.0365  0.3649
    1IPC    C4B70317  14.207  26.775   5.444  0.0925  0.0883 -0.1277
    1IPC    NC370318  29.279  19.237   6.672 -0.1604 -0.3718  0.3573
    1IPC    PO470319  29.473  18.911   6.437  0.0823  0.2852 -0.0113
    1IPC    GL170320  29.490  19.013   5.925 -0.1736 -0.0787 -0.1382
    1IPC    GL270321  29.715  19.111   5.764  0.2225 -0.0314 -0.0334
    1IPC    C1B70322  29.812  19.261   5.356 -0.3854 -0.0957  0.0331
    1IPC    D2B70323  29.831  19.114   4.913  0.0627 -0.0634  0.0002
    1IPC    D3B70324  29.850  19.174   4.502 -0.0021  0.2414 -0.1301
    1IPC    C4B70325  29.824  18.806   4.189 -0.0784 -0.0150  0.0411
    1IPC    NC370326  28.169  22.459   6.244  0.0792 -0.0306  0.0473
    1IPC    PO470327  27.987  22.223   5.905  0.1202 -0.2300 -0.2341
    1IPC    GL170328  27.930  22.342   5.510  0.0375 -0.1269 -0.0005
    1IPC    GL270329  28.033  22.258   5.232 -0.2129  0.2637 -0.1890
    1IPC    C1B70330  27.908  21.902   5.058 -0.1877 -0.2754 -0.1231
    1IPC    D2B70331  27.932  21.469   5.080 -0.3746  0.2586  0.0236
    1IPC    D3B70332  27.799  21.326   4.671  0.2955  0.1411 -0.1707
    1IPC    C4B70333  28.074  21.175   4.343 -0.0435 -0.2150  0.0989
    1IPC    NC370334  21.954   9.161   6.427  0.1027 -0.1250  0.1732
    1IPC    PO470335  22.122   8.634   6.536 -0.1728  0.1461 -0.1588
    1IPC    GL170336  22.052   8.589   6.080  0.2009  0.2284  0.2446
    1IPC    GL270337  21.966   8.704   5.804  0.0580 -0.2634  0.1172
    1IPC    C1B70338  22.085   8.747   5.334 -0.1166 -0.0561  0.3509
    1IPC    D2B70339  22.443   9.040   5.146 -0.1030 -0.2140  0.1801
    1IPC    D3B70340  22.588   8.945   4.727 -0.2483  0.1628  0.2141
    1IPC    C4B70341  22.521   9.266   4.469 -0.1205  0.1048  0.1018
    1IPC    NC370342  25.042  21.560   6.833  0.0537  0.0909 -0.3350
    1IPC    PO470343  25.369  21.438   6.700 -0.0081  0.1012 -0.1383
    1IPC    GL170344  25.137  21.448   6.385  0.2229  0.1607  0.0239
    1IPC    GL270345  25.007  21.362   6.106 -0.1548  0.2214 -0.0515
    1IPC    C1B70346  24.915  21.290   5.776  0.0412  0.0563  0.1320
    1IPC    D2B70347  24.733  21.256   5.425 -0.0810 -0.0974 -0.0979
    1IPC    D3B70348  24.890  21.625   5.306 -0.0588 -0.0690  0.0642
    1IPC    C4B70349  25.152  21.844   4.996 -0.0480 -0.3751 -0.1728
    1IPC    NC370350  29.356  29.107   6.259 -0.1548  0.0814 -0.4191
    1IPC    PO470351  29.087  29.273   6.586 -0.1531 -0.0870  0.0341
    1IPC    GL170352  28.862  29.366   6.176 -0.1088  0.0958 -0.0045
    1IPC    GL270353  28.592  29.447   5.939  0.1364  0.2054  0.1980
    1IPC    C1B70354  28.412  29.377   5.608  0.0282 -0.2010 -0.0071
    1IPC    D2B70355  28.100  29.667   5.397 -0.0105  0.0739  0.1664
    1IPC    D3B70356  28.210  29.462   4.943 -0.2248 -0.1165  0.1838
    1IPC    C4B70357  28.544  29.657   4.638 -0.1737 -0.2194  0.0898
    1IPC    NC370358  23.059  18.630   7.254  0.0825  0.2026 -0.0072
    1IPC    PO470359  22.794  18.999   7.123 -0.0386 -0.1838  0.2000
    1IPC    GL170360  22.830  18.690   6.762  0.2459 -0.0861 -0.0228
    1IPC    GL270361  22.699  18.693   6.420  0.3371  0.1076  0.1383
    1IPC    C1B70362  22.417  18.759   6.026 -0.0331 -0.1254 -0.1614
    1IPC    D2B70363  22.110  18.771   5.716  0.0052  0.0966  0.1244
    1IPC    D3B70364  21.918  19.090   5.443  0.1150 -0.1438  0.1754
    1IPC    C4B70365  21.761  19.086   5.019 -0.0695  0.1087  0.1185
    1IPC    NC370366  11.779   2.755   7.667  0.0895 -0.0093 -0.2646
    1IPC    PO470367  11.844   2.466   7.286 -0.6195 -0.3118 -0.4299
    1IPC    GL170368  11.970   2.644   6.891  0.0237 -0.0404 -0.1404
    1IPC    GL270369  12.237   2.484   6.664  0.2350 -0.1578 -0.0300
    1IPC    C1B70370  12.371   2.609   6.227  0.1911 -0.3246 -0.1007
    1IPC    D2B70371  12.400   2.745   5.805  0.2727  0.2940  0.0238
    1IPC    D3B70372  12.804   2.582   5.973 -0.2025  0.4516 -0.2426
    1IPC    C4B70373  13.169   2.926   6.137  0.2075 -0.1215  0.0613
    1IPC    NC370374  26.890  12.038   5.830  0.1563 -0.0758 -0.0936
    1IPC    PO470375  27.149  11.996   6.163  0.1201 -0.3207  0.1067
    1IPC    GL170376  27.363  12.177   5.827 -0.0237  0.0794  0.0027
    1IPC    GL270377  27.377  12.384   5.608  0.0200  0.3999 -0.0833
    1IPC    C1B70378  27.592  12.455   5.159  0.0234 -0.2829  0.0449
    1IPC    D2B70379  27.595  12.334   4.689 -0.1418  0.0164  0.0426
    1IPC    D3B70380  27.689  12.673   4.378 -0.2844  0.1204  0.0137
    1IPC    C4B70381  27.801  12.507   3.946  0.0288 -0.2519  0.0806
    1IPC    NC370382   9.259   7.679   7.838  0.0702  0.1287  0.1703
    1IPC    PO470383   8.952   7.890   7.492 -0.0232  0.1387 -0.2202
    1IPC    GL170384   8.977   8.144   7.085 -0.0465  0.1565  0.0114
    1IPC    GL270385   8.821   8.430   6.853 -0.0835 -0.0860 -0.0240
    1IPC    C1B70386   9.217   8.663   6.757 -0.0096  0.1503  0.2594
    1IPC    D2B70387   9.553   8.677   6.490 -0.1403  0.0106  0.0218
    1IPC    D3B70388   9.394   8.928   6.163  0.1306  0.1436  0.0714
    1IPC    C4B70389   9.265   8.716   5.799  0.1266  0.0310  0.2080
    1IPC    NC370390  11.438  21.813   6.282  0.0815  0.4150 -0.1625
    1IPC    PO470391  11.107  22.057   6.434  0.2566  0.1205 -0.2814
    1IPC    GL170392  11.151  22.016   5.992  0.2683 -0.3169 -0.1721
    1IPC    GL270393  11.015  21.906   5.770 -0.0601  0.3524  0.0745
    1IPC    C1B70394  11.031  21.807   5.387  0.1913  0.0745 -0.4150
    1IPC    D2B70395  10.985  21.815   4.920  0.0536  0.0033  0.0010
    1IPC    D3B70396  11.229  21.733   4.626 -0.2536  0.1433  0.0859
    1IPC    C4B70397  10.998  21.950   4.355  0.1455 -0.1866  0.0317
    1IPC    NC370398   2.644   3.123   7.292  0.3470 -0.0592 -0.0156
    1IPC    PO470399   2.890   3.457   7.077  0.0971 -0.0899  0.3720
    1IPC    GL170400   2.673   3.318   6.795 -0.2708 -0.1873 -0.1944
    1IPC    GL270401   2.707   3.189   6.456 -0.1611 -0.1294  0.0312
    1IPC    C1B70402   2.927   3.337   5.995  0.1831  0.1524 -0.0609
    1IPC    D2B70403   3.073   3.470   5.543 -0.0086 -0.2155  0.0132
    1IPC    D3B70404   2.892   3.543   5.087  0.1645 -0.0934 -0.1006
    1IPC    C4B70405   2.489   3.496   4.855  0.1361 -0.0803  0.0887
    1IPC    NC370406  26.683  28.235   6.635 -0.0662 -0.1712 -0.1245
    1IPC    PO470407  26.304  28.027   6.762 -0.0185  0.1940  0.4791
    1IPC    GL170408  26.150  27.719   6.386 -0.1834  0.1543 -0.1531
    1IPC    GL270409  26.088  27.670   6.057  0.0043 -0.6153  0.0918
    1IPC    C1B70410  26.027  27.925   5.584 -0.0063  0.2663 -0.0539
    1IPC    D2B70411  26.024  28.135   5.239 -0.0573 -0.0379  0.0573
    1IPC    D3B70412  26.130  27.798   5.117 -0.0523  0.1248  0.1922
    1IPC    C4B70413  25.956  27.464   5.116  0.2073  0.1236 -0.1521
    1IPC    NC370414  14.889  26.315   7.008  0.0459  0.0937  0.3177
    1IPC    PO470415  15.112  26.116   6.722  0.3296 -0.0532  0.1586
    1IPC    GL170416  14.757  25.928   6.396  0.1332 -0.0360 -0.3162
    1IPC    GL270417  14.754  25.912   6.058 -0.2320 -0.2242  0.0278
    1IPC    C1B70418  14.626  25.999   5.626 -0.0266 -0.0450  0.0409
    1IPC    D2B70419  14.475  26.276   5.462 -0.2484 -0.1195 -0.3864
    1IPC    D3B70420  14.806  26.336   5.097  0.1281  0.1079 -0.1093
    1IPC    C4B70421  14.934  25.941   4.901 -0.0189 -0.1882  0.0809
    1IPC    NC370422  26.730   6.989   7.554 -0.1627 -0.2013  0.2497
    1IPC    PO470423  26.723   6.649   7.251  0.2663 -0.0596  0.3098
    1IPC    GL170424  27.058   6.490   6.952 -0.0524  0.2071 -0.0447
    1IPC    GL270425  27.170   6.181   6.803 -0.0226 -0.0562 -0.2251
    1IPC    C1B70426  27.079   5.866   6.350  0.3888 -0.3715  0.3212
    1IPC    D2B70427  26.970   5.930   5.872 -0.0827  0.0962 -0.2242
    1IPC    D3B70428  26.602   5.821   5.647  0.1850  0.0419 -0.2616
    1IPC    C4B70429  26.413   5.494   5.691  0.2461 -0.1500  0.0600
    1IPC    NC370430   4.502  16.029   6.153  0.0850 -0.0394  0.1234
    1IPC    PO470431   4.804  16.423   6.072 -0.0280 -0.0616  0.2057
    1IPC    GL170432   4.527  16.569   5.828 -0.0991  0.1962 -0.1959
    1IPC    GL270433   4.221  16.529   5.631  0.0329  0.1460 -0.0423
    1IPC    C1B70434   3.877  16.436   5.272  0.1144 -0.0101  0.1259
    1IPC    D2B70435   3.560  16.232   5.065  0.0787 -0.2451  0.3547
    1IPC    D3B70436   3.137  16.311   4.989  0.0765 -0.0976  0.2876
    1IPC    C4B70437   3.037  16.674   4.863 -0.1943  0.0606  0.1155
    1IPC    NC370438   4.262  26.086   6.329 -0.0929 -0.0009  0.0852
    1IPC    PO470439   4.371  25.738   6.516  0.0500  0.0650 -0.0549
    1IPC    GL170440   4.539  25.695   6.085  0.4036 -0.0486  0.0281
    1IPC    GL270441   4.545  25.870   5.857 -0.6869  0.2780  0.1464
    1IPC    C1B70442   4.372  25.870   5.406  0.0502  0.2568  0.3100
    1IPC    D2B70443   4.340  25.952   4.934 -0.4430  0.0943 -0.1839
    1IPC    D3B70444   4.072  26.235   5.099  0.0215  0.2444  0.2356
    1IPC    C4B70445   4.136  26.638   5.162  0.1063  0.0381  0.1696
    1IPC    NC370446  25.202  14.002   6.249  0.3489 -0.0488 -0.2291
    1IPC    PO470447  24.972  14.320   6.105  0.1069  0.1116 -0.0640
    1IPC    GL170448  24.704  14.312   5.738 -0.1189  0.0583 -0.2490
    1IPC    GL270449  24.441  14.319   5.578  0.1265  0.0344  0.2424
    1IPC    C1B70450  24.074  14.188   5.303 -0.0057 -0.1203 -0.2053
    1IPC    D2B70451  23.841  14.189   4.929  0.1453 -0.0476 -0.0163
    1IPC    D3B70452  23.815  14.102   4.390  0.1339 -0.0842  0.3216
    1IPC    C4B70453  23.845  14.470   4.081 -0.2083 -0.1442 -0.2432
    1IPC    NC370454  12.818  27.305   7.353  0.0834  0.0099  0.0494
    1IPC    PO470455  13.082  27.188   7.058 -0.0286  0.0902  0.0930
    1IPC    GL170456  13.232  27.407   6.721 -0.0920  0.1907 -0.1208
    1IPC    GL270457  13.233  27.410   6.337  0.2215 -0.3317 -0.0696
    1IPC    C1B70458  13.249  27.545   5.996 -0.1218 -0.0771  0.2331
    1IPC    D2B70459  13.109  27.766   5.627  0.1383 -0.0100 -0.1100
    1IPC    D3B70460  12.768  27.999   5.379  0.1899  0.1987  0.0201
    1IPC    C4B70461  12.596  28.459   5.438  0.2293 -0.1297 -0.1281
    1IPC    NC370462  23.910  20.878   6.988  0.0377  0.0295  0.0537
    1IPC    PO470463  23.701  21.274   6.845 -0.1145  0.3895  0.0295
    1IPC    GL170464  23.839  20.938   6.529  0.1353 -0.0512 -0.0920
    1IPC    GL270465  23.755  20.637   6.428 -0.4167 -0.0770  0.1154
    1IPC    C1B70466  23.597  20.283   6.201 -0.0180 -0.2823 -0.1397
    1IPC    D2B70467  23.472  20.232   5.695  0.2419  0.0614  0.2641
    1IPC    D3B70468  23.600  20.677   5.531 -0.2209  0.2383  0.0293
    1IPC    C4B70469  23.703  20.757   5.112  0.0196  0.1322 -0.2456
    1IPC    NC370470   2.796  28.530   6.240 -0.0123  0.0549 -0.3971
    1IPC    PO470471   3.100  28.772   6.436  0.3229  0.1936 -0.0068
    1IPC    GL170472   2.986  28.918   5.980 -0.0994 -0.0592 -0.0120
    1IPC    GL270473   2.791  28.900   5.748  0.2515 -0.1048 -0.2167
    1IPC    C1B70474   2.692  29.032   5.311 -0.1741  0.0265  0.1165
    1IPC    D2B70475   2.478  29.444   5.169  0.0477 -0.2321  0.2597
    1IPC    D3B70476   2.593  29.517   4.767 -0.1922 -0.1926 -0.1317
    1IPC    C4B70477   2.432  29.886   4.588 -0.0281  0.0287  0.0275
    1IPC    NC370478  12.477   4.751   7.254  0.1934  0.1909  0.1583
    1IPC    PO470479  12.477   5.139   7.419 -0.1721 -0.0257  0.3378
    1IPC    GL170480  12.501   5.298   7.029 -0.3406 -0.0053  0.0675
    1IPC    GL270481  12.519   5.459   6.738 -0.0102 -0.0850 -0.6834
    1IPC    C1B70482  12.551   5.520   6.302  0.2991  0.0521 -0.0463
    1IPC    D2B70483  12.490   5.382   5.873 -0.1257  0.2236 -0.0403
    1IPC    D3B70484  12.363   5.792   5.583 -0.2179  0.0585  0.0890
    1IPC    C4B70485  12.514   5.697   5.226 -0.2181 -0.0901 -0.1217
    1IPC    NC370486  17.431   7.573   6.692 -0.1276  0.0910 -0.1375
    1IPC    PO470487  17.183   7.192   6.732  0.1915 -0.2222 -0.4859
    1IPC    GL170488  17.238   7.287   6.226 -0.1752  0.1493 -0.0854
    1IPC    GL270489  17.058   7.376   5.969  0.0126 -0.1121 -0.1717
    1IPC    C1B70490  17.140   7.531   5.559 -0.3095  0.0890 -0.1998
    1IPC    D2B70491  17.100   7.868   5.331 -0.2080 -0.1759 -0.0121
    1IPC    D3B70492  17.498   7.799   5.088  0.0151 -0.3002  0.1716
    1IPC    C4B70493  17.741   7.509   4.828 -0.3189 -0.0752 -0.1185
    1IPC    NC370494  26.079  18.075   6.354 -0.0309 -0.0873 -0.1001
    1IPC    PO470495  26.216  18.459   6.559 -0.2895  0.1557 -0.1491
    1IPC    GL170496  26.160  18.502   6.162  0.0088 -0.2253 -0.0744
    1IPC    GL270497  25.914  18.362   5.949  0.1646  0.2418  0.3182
    1IPC    C1B70498  25.593  18.468   5.661  0.1596  0.0608  0.1614
    1IPC    D2B70499  25.442  18.685   5.332  0.0326 -0.1453  0.2834
    1IPC    D3B70500  25.280  18.740   4.962 -0.0757 -0.1528 -0.1900
    1IPC    C4B70501  25.370  18.566   4.624 -0.0196 -0.0122 -0.1637
    1IPC    NC370502  26.513  29.107   7.229  0.2717 -0.2523  0.0113
    1IPC    PO470503  26.158  29.191   7.139 -0.0825 -0.0761  0.0238
    1IPC    GL170504  26.105  29.190   6.792  0.0518  0.0926  0.2001
    1IPC    GL270505  26.241  29.254   6.477  0.0601  0.0038 -0.0529
    1IPC    C1B70506  26.355  29.646   6.145  0.1764  0.2225  0.1058
    1IPC    D2B70507  26.055  29.989   6.149  0.0880  0.0341 -0.1842
    1IPC    D3B70508  25.988  30.321   5.776 -0.3637  0.0917  0.2958
    1IPC    C4B70509  25.941  30.323   5.385  0.1015  0.0826  0.1945
    1IPC    NC370510   8.009   3.744   7.791 -0.2425  0.0987  0.0334
    1IPC    PO470511   8.086   3.469   7.439 -0.1213  0.0737 -0.0569
    1IPC    GL170512   8.153   3.447   6.967  0.1386  0.0979  0.0386
    1IPC    GL270513   8.074   3.722   6.729  0.2047 -0.2586  0.1849
    1IPC    C1B70514   7.748   3.795   6.377  0.1026 -0.3119  0.0671
    1IPC    D2B70515   7.265   3.646   6.344  0.2404  0.0450 -0.0205
    1IPC    D3B70516   7.249   3.248   6.321  0.0796  0.2885  0.0088
    1IPC    C4B70517   7.114   3.072   5.882  0.1602  0.3860 -0.0944
    1IPC    NC370518  28.870  20.531   6.403  0.2301 -0.0309  0.1715
    1IPC    PO470519  28.853  20.911   6.132  0.0576  0.0732  0.0339
    1IPC    GL170520  28.952  20.961   5.701  0.2392 -0.0346 -0.2409
    1IPC    GL270521  29.059  20.975   5.386  0.3360  0.1922 -0.0569
    1IPC    C1B70522  29.207  20.715   5.180 -0.0357 -0.0807  0.0609
    1IPC    D2B70523  29.210  20.577   4.762  0.1808  0.0839  0.1219
    1IPC    D3B70524  29.586  20.809   4.732  0.2439  0.0069  0.1924
    1IPC    C4B70525  29.893  20.968   5.032  0.1113 -0.0656  0.0032
    1IPC    NC370526   4.899  25.772   6.494  0.0491  0.0469 -0.2618
    1IPC    PO470527   4.839  26.214   6.487  0.2847  0.0219  0.0103
    1IPC    GL170528   4.634  26.472   6.129 -0.0170 -0.1712  0.2706
    1IPC    GL270529   4.807  26.712   5.973 -0.1857  0.1052  0.2937
    1IPC    C1B70530   4.947  26.797   5.582 -0.0773 -0.0591 -0.0591
    1IPC    D2B70531   4.964  27.065   5.248 -0.1684 -0.2821 -0.2076
    1IPC    D3B70532   5.322  27.163   5.001 -0.2839  0.0704  0.1847
    1IPC    C4B70533   5.233  27.033   4.504  0.2963 -0.2560 -0.0280
    1IPC    NC370534   0.877  15.263   5.790  0.1590  0.0721  0.0737
    1IPC    PO470535   0.595  15.524   5.933  0.3243  0.3872 -0.2505
    1IPC    GL170536   0.406  15.486   5.544  0.0608 -0.1298 -0.0216
    1IPC    GL270537   0.328  15.465   5.229 -0.1237  0.0077  0.0976
    1IPC    C1B70538   0.240  15.417   4.877  0.2425  0.3931  0.0259
    1IPC    D2B70539   0.311  15.627   4.519  0.1476 -0.2338 -0.0895
    1IPC    D3B70540   0.247  15.918   4.198 -0.2811 -0.0780 -0.1002
    1IPC    C4B70541   0.554  16.121   3.900 -0.3427 -0.0076 -0.0350
    1IPC    NC370542   0.234  14.858   6.524 -0.2475 -0.2179 -0.0790
    1IPC    PO470543   0.421  14.547   6.076 -0.0685 -0.0372  0.3586
    1IPC    GL170544   0.077  14.710   5.830  0.2543 -0.1273  0.2153
    1IPC    GL270545  -0.217  14.742   5.779 -0.1681  0.1034  0.0861
    1IPC    C1B70546  -0.366  14.866   5.410 -0.4336  0.0723 -0.2307
    1IPC    D2B70547  -0.636  14.858   4.990  0.0046 -0.0507  0.2041
    1IPC    D3B70548  -0.601  14.927   4.605 -0.0040  0.1957 -0.0396
    1IPC    C4B70549  -0.326  15.107   4.289 -0.0853  0.1868 -0.2130
    1IPC    NC370550  27.885  25.860   6.650  0.0611 -0.0797 -0.0304
    1IPC    PO470551  27.524  25.722   6.829 -0.0788  0.1367  0.0647
    1IPC    GL170552  27.554  25.594   6.360  0.0745 -0.2452  0.0828
    1IPC    GL270553  27.516  25.650   5.964 -0.2472 -0.2126 -0.0808
    1IPC    C1B70554  27.412  25.543   5.515  0.2288  0.1052  0.1198
    1IPC    D2B70555  27.258  25.721   5.068 -0.1370 -0.0379 -0.1703
    1IPC    D3B70556  27.386  26.184   5.008 -0.4567  0.0393  0.1580
    1IPC    C4B70557  27.792  26.198   4.675  0.3850 -0.3185  0.0838
    1IPC    NC370558  26.207  15.481   6.691 -0.0317 -0.0596 -0.1210
    1IPC    PO470559  25.821  15.386   6.508  0.1030 -0.2829  0.4263
    1IPC    GL170560  25.496  15.261   6.156 -0.0862 -0.1431  0.0247
    1IPC    GL270561  25.372  15.222   5.761 -0.0702  0.2485  0.2805
    1IPC    C1B70562  25.149  15.441   5.448  0.0617  0.1662 -0.2017
    1IPC    D2B70563  24.902  15.511   4.939 -0.0736 -0.2215  0.2362
    1IPC    D3B70564  25.097  15.613   4.523 -0.3240 -0.0907 -0.0973
    1IPC    C4B70565  25.053  15.706   4.037  0.1080  0.3244 -0.0599
    1IPC    NC370566  22.485   4.738   6.730 -0.0727  0.3238  0.0944
    1IPC    PO470567  22.668   4.515   7.014 -0.0013 -0.0563 -0.0595
    1IPC    GL170568  22.783   4.313   6.700 -0.0649  0.0074 -0.1498
    1IPC    GL270569  22.728   4.324   6.405 -0.2303 -0.0161 -0.1026
    1IPC    C1B70570  22.380   4.347   6.062 -0.0828  0.0338  0.0228
    1IPC    D2B70571  22.111   4.584   5.845  0.3490 -0.0601 -0.2458
    1IPC    D3B70572  22.048   4.171   5.648  0.0213 -0.3035 -0.0543
    1IPC    C4B70573  22.162   4.056   5.330  0.0611 -0.3252 -0.0466
    1IPC    NC370574  18.731  23.144   7.631  0.1304  0.0175 -0.1731
    1IPC    PO470575  18.747  23.538   7.400  0.0527  0.0283  0.1027
    1IPC    GL170576  18.568  23.254   7.095  0.1636 -0.1222  0.1072
    1IPC    GL270577  18.481  23.245   6.755 -0.0580  0.1149 -0.3166
    1IPC    C1B70578  18.554  23.391   6.346 -0.0497  0.1286  0.0598
    1IPC    D2B70579  18.463  23.711   5.981 -0.1285  0.0816 -0.0323
    1IPC    D3B70580  18.341  23.820   5.549 -0.1210  0.2357 -0.0159
    1IPC    C4B70581  18.191  23.511   5.209 -0.0531 -0.1464 -0.0582
    1IPC    NC370582   0.650   1.122   6.542  0.0827 -0.0504  0.0866
    1IPC    PO470583   0.327   1.365   6.388 -0.4053  0.0373 -0.1814
    1IPC    GL170584   0.120   1.202   6.004  0.0091 -0.0926 -0.0001
    1IPC    GL270585  -0.132   1.054   5.956 -0.1639  0.3396 -0.2421
    1IPC    C1B70586  -0.336   0.755   5.730 -0.3670 -0.2006  0.0606
    1IPC    D2B70587  -0.472   0.722   5.384 -0.0837 -0.0906  0.0441
    1IPC    D3B70588  -0.381   0.724   4.923 -0.1019 -0.0875  0.0560
    1IPC    C4B70589  -0.594   1.023   4.587 -0.1200 -0.0341  0.0413
    1IPC    NC370590  22.958  15.200   6.697  0.0437  0.0576  0.0998
    1IPC    PO470591  22.944  14.760   6.429  0.0642 -0.2176 -0.0958
    1IPC    GL170592  23.089  14.766   6.066  0.3162 -0.0187  0.2271
    1IPC    GL270593  23.278  14.886   5.887  0.1119 -0.0371 -0.1222
    1IPC    C1B70594  23.504  15.022   5.485 -0.2572 -0.0787 -0.2594
    1IPC    D2B70595  23.701  15.217   5.061  0.0312  0.3118  0.1428
    1IPC    D3B70596  23.354  15.563   4.873 -0.1326 -0.0236  0.0109
    1IPC    C4B70597  23.172  15.483   4.416  0.2871  0.2033 -0.0228
    1IPC    NC370598   7.631  20.042   6.075  0.0247  0.1035 -0.0021
    1IPC    PO470599   8.036  19.999   6.202  0.2598 -0.1065  0.0036
    1IPC    GL170600   7.844  19.583   6.067 -0.1904 -0.0076 -0.0260
    1IPC    GL270601   7.922  19.390   5.860  0.2176  0.2147  0.1875
    1IPC    C1B70602   8.127  19.351   5.491 -0.2060 -0.0121  0.0526
    1IPC    D2B70603   8.322  19.183   5.173  0.2528 -0.0417 -0.2623
    1IPC    D3B70604   8.769  19.124   4.953  0.0728 -0.0683  0.0190
    1IPC    C4B70605   8.794  18.837   4.637  0.0067 -0.2703  0.1604
    1IPC    NC370606   2.207   7.245   6.807  0.2795 -0.0164 -0.2381
    1IPC    PO470607   1.853   7.607   6.699 -0.0090  0.1210  0.2609
    1IPC    GL170608   1.710   7.569   6.289 -0.1436  0.0589 -0.0608
    1IPC    GL270609   1.794   7.742   6.022 -0.2124  0.1780  0.3661
    1IPC    C1B70610   2.076   7.887   5.700  0.1148 -0.0512  0.1301
    1IPC    D2B70611   2.070   7.870   5.268 -0.0674  0.0178  0.2597
    1IPC    D3B70612   2.084   8.373   5.287 -0.0692  0.0032 -0.3530
    1IPC    C4B70613   2.011   8.604   4.815  0.1808 -0.2518  0.0877
    1IPC    NC370614   9.081  17.722   6.944 -0.1471 -0.1483  0.1701
    1IPC    PO470615   8.685  17.513   6.727  0.1174 -0.1807 -0.0783
    1IPC    GL170616   8.565  17.418   6.352  0.0478 -0.0169 -0.1289
    1IPC    GL270617   8.504  17.339   6.011 -0.1959  0.3337 -0.1779
    1IPC    C1B70618   8.634  17.281   5.729  0.0052  0.0225  0.2665
    1IPC    D2B70619   8.536  17.172   5.348  0.1330 -0.2892  0.1375
    1IPC    D3B70620   8.721  17.393   5.082 -0.2897  0.2789 -0.3066
    1IPC    C4B70621   8.740  17.375   4.655 -0.2621 -0.2627 -0.0302
    1IPC    NC370622  23.767  14.637   6.561 -0.1747 -0.0369  0.0933
    1IPC    PO470623  24.117  14.609   6.478 -0.1198 -0.1310  0.0168
    1IPC    GL170624  23.937  14.603   6.070 -0.0760  0.2288  0.0015
    1IPC    GL270625  23.744  14.588   5.730 -0.2243  0.1656 -0.4305
    1IPC    C1B70626  23.634  14.584   5.353 -0.0709  0.0827 -0.1797
    1IPC    D2B70627  23.430  14.754   4.980 -0.3067 -0.1016 -0.4003
    1IPC    D3B70628  23.111  14.848   5.261 -0.0924 -0.1523  0.1650
    1IPC    C4B70629  22.746  15.037   5.261 -0.1212  0.2797  0.0967
    1IPC    NC370630  20.785  20.926   7.184 -0.2568  0.0485  0.0987
    1IPC    PO470631  20.784  20.886   6.746  0.1343  0.1746  0.2125
    1IPC    GL170632  21.135  20.898   6.445  0.1016 -0.0578 -0.0070
    1IPC    GL270633  21.289  20.809   6.184 -0.0921 -0.1484 -0.0545
    1IPC    C1B70634  21.183  20.819   5.726 -0.0168  0.0887  0.0347
    1IPC    D2B70635  21.011  20.785   5.285 -0.1090  0.0254  0.0885
    1IPC    D3B70636  20.754  20.479   5.159 -0.1147  0.2048 -0.0061
    1IPC    C4B70637  20.465  20.268   5.413 -0.1594  0.1245  0.1988
    1IPC    NC370638  29.617  22.750   6.030 -0.0868 -0.2821 -0.1194
    1IPC    PO470639  29.326  22.671   6.119  0.1446 -0.0841 -0.0788
    1IPC    GL170640  29.150  22.465   5.883  0.0365 -0.0278  0.0228
    1IPC    GL270641  29.191  22.281   5.579  0.2442 -0.2246  0.1093
    1IPC    C1B70642  29.353  22.273   5.215 -0.1775  0.0669  0.0009
    1IPC    D2B70643  29.284  22.079   4.822 -0.0555 -0.1187  0.0527
    1IPC    D3B70644  29.635  22.118   4.468 -0.1464 -0.2315 -0.0734
    1IPC    C4B70645  29.435  22.358   4.195  0.0484 -0.2183  0.1347
    1IPC    NC370646  20.177   3.806   6.690 -0.0788 -0.0818  0.1529
    1IPC    PO470647  19.935   3.969   6.383 -0.0928  0.1752  0.0715
    1IPC    GL170648  19.910   4.392   6.142 -0.0991 -0.0452 -0.1383
    1IPC    GL270649  19.892   4.431   5.824 -0.0633  0.0286 -0.0825
    1IPC    C1B70650  19.833   4.644   5.417 -0.1601  0.0562  0.1590
    1IPC    D2B70651  19.929   4.657   5.010  0.1183 -0.0899 -0.0711
    1IPC    D3B70652  20.108   4.959   4.762  0.1051 -0.2977 -0.0283
    1IPC    C4B70653  20.470   4.907   4.706  0.3338 -0.0600 -0.2955
    1IPC    NC370654  17.858   0.679   6.622 -0.0191  0.0549 -0.0769
    1IPC    PO470655  18.258   0.514   6.779  0.1765  0.1023  0.0629
    1IPC    GL170656  18.308   0.515   6.273 -0.0455 -0.1548  0.0585
    1IPC    GL270657  18.385   0.688   6.103  0.1709  0.0536  0.3108
    1IPC    C1B70658  18.177   0.982   5.818 -0.2266  0.3629  0.1352
    1IPC    D2B70659  17.724   0.895   5.693 -0.3670 -0.0830 -0.2376
    1IPC    D3B70660  18.062   0.941   5.329  0.0704 -0.1351  0.2287
    1IPC    C4B70661  18.236   0.806   4.891 -0.0889 -0.2576 -0.0392
    1IPC    NC370662  29.568   3.282   6.643 -0.0355 -0.1474 -0.0705
    1IPC    PO470663  29.371   2.951   6.833 -0.0939  0.0859  0.1593
    1IPC    GL170664  29.604   2.805   6.469 -0.1074 -0.1974  0.1759
    1IPC    GL270665  29.663   2.948   6.199  0.2370  0.0779 -0.2843
    1IPC    C1B70666  29.710   3.055   5.815  0.1442  0.0092  0.0698
    1IPC    D2B70667  29.671   3.185   5.357 -0.0307 -0.0478  0.0708
    1IPC    D3B70668  29.544   2.853   5.007  0.1394 -0.0650  0.2074
    1IPC    C4B70669  29.213   2.737   5.097  0.1764 -0.0833 -0.0623
    1IPC    NC370670   1.638  27.045   6.368  0.0609 -0.2859  0.0925
    1IPC    PO470671   2.029  27.024   6.589 -0.1823  0.1890  0.2278
    1IPC    GL170672   2.088  27.262   6.301 -0.0270 -0.2988  0.0956
    1IPC    GL270673   2.078  27.450   6.050 -0.5110  0.1737 -0.0075
    1IPC    C1B70674   2.162  27.835   5.823 -0.0980 -0.2501  0.0478
    1IPC    D2B70675   1.959  28.188   5.655 -0.0184 -0.0710 -0.5094
    1IPC    D3B70676   1.766  28.188   5.155 -0.1397 -0.3702 -0.2305
    1IPC    C4B70677   1.430  27.936   5.009 -0.2085 -0.2672  0.0882
    1IPC    NC370678  27.040  17.937   6.437  0.1608  0.3093  0.0374
    1IPC    PO470679  26.602  17.768   6.487  0.3812 -0.0275 -0.2984
    1IPC    GL170680  26.475  17.854   6.125 -0.1933 -0.0296 -0.3025
    1IPC    GL270681  26.390  18.093   5.844  0.0716  0.1225 -0.0276
    1IPC    C1B70682  26.595  18.414   5.699 -0.0678 -0.2523  0.3699
    1IPC    D2B70683  26.818  18.590   5.364  0.1392 -0.1376 -0.0675
    1IPC    D3B70684  27.136  18.317   5.163  0.0224 -0.1431  0.0463
    1IPC    C4B70685  27.395  18.348   4.744  0.1544  0.0378 -0.3236
    1IPC    NC370686   2.382  11.717   5.987  0.1877 -0.1869  0.2611
    1IPC    PO470687   2.330  11.502   6.387 -0.0127  0.0107 -0.0758
    1IPC    GL170688   2.526  11.254   6.181 -0.0803  0.1081 -0.4592
    1IPC    GL270689   2.448  11.094   5.831 -0.1548  0.4230 -0.0916
    1IPC    C1B70690   2.628  11.166   5.470 -0.1910  0.0541  0.0574
    1IPC    D2B70691   2.822  11.042   5.062 -0.4096 -0.0072  0.1029
    1IPC    D3B70692   2.769  11.518   5.016 -0.4697  0.2664 -0.1984
    1IPC    C4B70693   3.079  11.832   4.867 -0.0232  0.1396 -0.2904
    1IPC    NC370694  12.925   3.991   8.138 -0.0480 -0.1404  0.0345
    1IPC    PO470695  13.111   4.223   7.685  0.0660 -0.0028  0.1034
    1IPC    GL170696  12.993   4.414   7.241 -0.0137 -0.1614  0.0291
    1IPC    GL270697  13.019   4.562   6.873 -0.0084  0.1847 -0.1099
    1IPC    C1B70698  13.184   4.393   6.479  0.0715 -0.0486 -0.1995
    1IPC    D2B70699  13.178   4.405   6.039 -0.4676  0.1244 -0.2137
    1IPC    D3B70700  12.830   4.208   5.866 -0.0912  0.1663  0.0151
    1IPC    C4B70701  12.703   4.214   5.501 -0.3462 -0.0131  0.1711
    1IPC    NC370702   4.638   4.398   7.187  0.1922  0.0220  0.1519
    1IPC    PO470703   4.358   4.320   6.935  0.0101 -0.0108  0.0671
    1IPC    GL170704   4.509   4.097   6.451 -0.0819  0.4474  0.1622
    1IPC    GL270705   4.732   3.949   6.257 -0.1935  0.0207 -0.1232
    1IPC    C1B70706   5.025   3.874   5.907  0.1013  0.0709 -0.0653
    1IPC    D2B70707   5.378   3.717   5.697  0.5149 -0.1735  0.2371
    1IPC    D3B70708   5.087   3.851   5.443 -0.0712  0.1108 -0.2558
    1IPC    C4B70709   4.898   4.216   5.493  0.0228  0.0599  0.2231
    1IPC    NC370710   0.062  17.246   6.979 -0.4796 -0.2166 -0.1150
    1IPC    PO470711  -0.066  17.518   6.529 -0.1329  0.1328 -0.2078
    1IPC    GL170712   0.332  17.659   6.173 -0.0452 -0.0981  0.0202
    1IPC    GL270713   0.596  17.720   5.949 -0.0100  0.0361  0.2611
    1IPC    C1B70714   0.777  17.965   5.640 -0.1321 -0.0860  0.0254
    1IPC    D2B70715   0.636  18.189   5.195 -0.1801 -0.0152 -0.1035
    1IPC    D3B70716   0.501  18.216   4.763 -0.0251 -0.2618  0.1860
    1IPC    C4B70717   0.804  18.170   4.546 -0.2363  0.0660 -0.2184
    1IPC    NC370718  22.193   2.282   7.630  0.0607 -0.3721  0.1010
    1IPC    PO470719  22.016   2.492   7.197 -0.1564 -0.0213 -0.0858
    1IPC    GL170720  22.031   2.323   6.812  0.0612  0.1342  0.4738
    1IPC    GL270721  21.797   2.075   6.703 -0.1388 -0.0057 -0.1281
    1IPC    C1B70722  21.627   1.722   6.432  0.1660  0.1712  0.0147
    1IPC    D2B70723  21.959   1.526   6.164 -0.0601 -0.0763 -0.0175
    1IPC    D3B70724  22.295   1.722   6.024 -0.0295 -0.0412 -0.1195
    1IPC    C4B70725  22.385   1.517   5.665  0.0011  0.2688 -0.1452
    1IPC    NC370726  28.765   5.642   6.678 -0.0045 -0.1671  0.0150
    1IPC    PO470727  28.286   5.551   6.802 -0.0529  0.1264 -0.0076
    1IPC    GL170728  28.434   5.180   6.545 -0.3326  0.3191 -0.0578
    1IPC    GL270729  28.615   5.080   6.363  0.1781  0.2036 -0.3414
    1IPC    C1B70730  28.558   4.746   6.202 -0.2439  0.0131  0.0388
    1IPC    D2B70731  28.615   4.588   5.812  0.0334  0.3007  0.2316
    1IPC    D3B70732  28.753   4.197   5.587  0.2672 -0.0734 -0.5379
    1IPC    C4B70733  28.814   4.284   5.169 -0.3211  0.0510 -0.2460
    1IPC    NC370734   2.778   6.588   6.725  0.2219  0.1644 -0.1850
    1IPC    PO470735   3.134   6.797   6.707 -0.1791 -0.1431  0.2679
    1IPC    GL170736   3.237   7.113   6.393  0.2411 -0.2350 -0.1413
    1IPC    GL270737   3.380   7.264   6.178  0.0632  0.0553 -0.1433
    1IPC    C1B70738   3.360   7.556   5.840  0.0416 -0.3349 -0.1023
    1IPC    D2B70739   3.443   7.970   5.714 -0.2731  0.2343  0.0907
    1IPC    D3B70740   3.203   7.981   5.288  0.0965 -0.1984  0.0720
    1IPC    C4B70741   2.908   7.787   5.213 -0.1010  0.1135 -0.0799
    1IPC    NC370742  25.419  29.335   7.405 -0.1434 -0.0008 -0.2429
    1IPC    PO470743  25.588  29.594   7.125 -0.0850  0.0656 -0.1832
    1IPC    GL170744  25.228  29.586   6.935 -0.0197 -0.2551  0.2197
    1IPC    GL270745  25.208  29.591   6.620  0.1020  0.0981  0.1720
    1IPC    C1B70746  25.442  29.370   6.321 -0.1381  0.3080 -0.0113
    1IPC    D2B70747  25.855  29.503   6.130 -0.3337  0.4602  0.1460
    1IPC    D3B70748  25.942  29.597   5.739 -0.1688 -0.1284  0.1701
    1IPC    C4B70749  26.367  29.458   5.698  0.1925  0.2476  0.3499
    1IPC    NC370750  27.784   0.742   6.453 -0.2404 -0.0843  0.4010
    1IPC    PO470751  27.370   0.835   6.646 -0.0386  0.2163 -0.0780
    1IPC    GL170752  27.313   0.626   6.230  0.0332  0.2722 -0.2931
    1IPC    GL270753  27.461   0.561   5.919  0.0893  0.1121  0.1439
    1IPC    C1B70754  27.355   0.695   5.507 -0.1776  0.2968  0.0288
    1IPC    D2B70755  27.131   0.553   5.244  0.1565 -0.1148  0.0478
    1IPC    D3B70756  27.214   0.294   4.942  0.0512 -0.1651 -0.1364
    1IPC    C4B70757  27.506   0.228   4.710  0.1004  0.3311 -0.1257
    1IPC    NC370758   6.858   7.620   7.127 -0.0183  0.0545  0.1556
    1IPC    PO470759   6.523   7.327   7.017  0.2567  0.0165 -0.0483
    1IPC    GL170760   6.597   7.010   6.829  0.0614  0.0296  0.0107
    1IPC    GL270761   6.760   6.767   6.765  0.3418  0.1528  0.2264
    1IPC    C1B70762   6.857   6.723   6.402 -0.0885  0.1335 -0.0622
    1IPC    D2B70763   6.951   6.431   6.125  0.0044  0.0335  0.1145
    1IPC    D3B70764   6.957   6.319   5.652  0.0640 -0.0758  0.1232
    1IPC    C4B70765   6.769   5.968   5.531 -0.0384 -0.3928 -0.1969
    1IPC    NC370766  28.653  10.927   6.185 -0.3486  0.4716  0.1886
    1IPC    PO470767  28.357  11.170   6.285  0.0357 -0.2132  0.1414
    1IPC    GL170768  28.226  11.019   5.818  0.0485 -0.0202 -0.1715
    1IPC    GL270769  28.091  11.032   5.507  0.1994  0.1960  0.4230
    1IPC    C1B70770  28.038  10.974   5.031 -0.1129 -0.1684 -0.0686
    1IPC    D2B70771  27.969  10.992   4.536  0.0711  0.1114 -0.1338
    1IPC    D3B70772  27.574  10.818   4.420 -0.2528  0.0173 -0.0817
    1IPC    C4B70773  27.218  10.752   4.114  0.1068  0.0361 -0.2833
    1IPC    NC370774  21.205   7.078   6.904 -0.3974  0.1098 -0.0436
    1IPC    PO470775  20.920   6.908   6.670 -0.1523  0.0590  0.0725
    1IPC    GL170776  21.314   6.884   6.305  0.2436  0.3241 -0.0763
    1IPC    GL270777  21.587   6.846   5.967  0.0499 -0.1479 -0.0961
    1IPC    C1B70778  21.954   6.796   5.652 -0.0343 -0.0174  0.0180
    1IPC    D2B70779  22.310   6.786   5.375  0.1678 -0.0928 -0.1171
    1IPC    D3B70780  22.264   7.149   5.403  0.1221 -0.0823 -0.0832
    1IPC    C4B70781  22.409   7.617   5.328 -0.0375 -0.0701 -0.0449
    1IPC    NC370782  17.993   1.538   6.952  0.1518 -0.0831 -0.0020
    1IPC    PO470783  17.888   1.732   6.685 -0.1713  0.0260 -0.2039
    1IPC    GL170784  18.066   1.614   6.383  0.1700 -0.2433 -0.0922
    1IPC    GL270785  18.230   1.472   6.076  0.1937  0.1700  0.2188
    1IPC    C1B70786  18.325   1.387   5.631 -0.1312  0.0706  0.0331
    1IPC    D2B70787  18.412   1.375   5.203  0.1473 -0.0410  0.0761
    1IPC    D3B70788  18.061   1.656   5.215 -0.0138 -0.2659 -0.3066
    1IPC    C4B70789  18.067   1.900   5.586 -0.0141  0.1469  0.1251
    1IPC    NC370790  25.316  10.069   6.729  0.1662 -0.1511  0.1714
    1IPC    PO470791  25.324  10.070   6.249  0.2176  0.0278  0.2259
    1IPC    GL170792  25.547  10.361   5.933 -0.2385  0.2137  0.1797
    1IPC    GL270793  25.677  10.419   5.596 -0.1193 -0.0340 -0.2809
    1IPC    C1B70794  25.440  10.390   5.214 -0.2181  0.1327 -0.3316
    1IPC    D2B70795  25.340  10.273   4.795  0.0403 -0.3027 -0.0582
    1IPC    D3B70796  25.726  10.101   4.718 -0.0739  0.1339 -0.3396
    1IPC    C4B70797  25.918   9.888   4.383 -0.1354  0.1424 -0.1443
    1IPC    NC370798   0.884  18.215   6.534  0.1574 -0.1141 -0.1811
    1IPC    PO470799   0.604  18.056   6.327 -0.5908 -0.3436 -0.0194
    1IPC    GL170800   0.632  18.390   6.075 -0.1281  0.1103 -0.0207
    1IPC    GL270801   0.542  18.488   5.820  0.1405 -0.0846 -0.3432
    1IPC    C1B70802   0.827  18.543   5.469 -0.0154  0.0839 -0.3497
    1IPC    D2B70803   1.032  18.857   5.265  0.1622 -0.3678 -0.0234
    1IPC    D3B70804   0.838  18.534   4.936  0.1197  0.1739 -0.3729
    1IPC    C4B70805   0.711  18.670   4.580  0.1797  0.2089 -0.0487
    1IPC    NC370806  25.652  13.380   5.882 -0.1101 -0.0579 -0.1275
    1IPC    PO470807  25.225  13.565   5.949 -0.2981 -0.3882 -0.0614
    1IPC    GL170808  24.802  13.426   5.720  0.2305 -0.0501  0.2374
    1IPC    GL270809  24.642  13.334   5.572 -0.1201  0.0512  0.1510
    1IPC    C1B70810  24.450  13.338   5.098  0.0104 -0.2361  0.2306
    1IPC    D2B70811  24.757  13.347   4.718  0.1951 -0.0221 -0.2010
    1IPC    D3B70812  24.520  12.968   4.771 -0.3280 -0.1294  0.0347
    1IPC    C4B70813  24.203  12.867   4.493  0.3090  0.3474  0.0064
    1IPC    NC370814   0.642  14.460   5.630 -0.3870 -0.0094  0.2504
    1IPC    PO470815   0.521  14.907   5.640  0.3607 -0.0459 -0.0299
    1IPC    GL170816   0.704  15.083   5.316  0.0114 -0.1648 -0.1298
    1IPC    GL270817   0.689  15.174   5.037 -0.1947  0.1898 -0.0110
    1IPC    C1B70818   0.733  15.495   4.856 -0.1238 -0.1764  0.0431
    1IPC    D2B70819   0.618  15.818   4.938 -0.0256 -0.0857  0.1766
    1IPC    D3B70820   0.682  15.960   4.492 -0.0528  0.0524 -0.2419
    1IPC    C4B70821   0.740  16.361   4.335 -0.2692  0.3817 -0.1990
    1IPC    NC370822  21.058   1.700   6.696 -0.2831 -0.0320 -0.1373
    1IPC    PO470823  20.678   1.841   6.471  0.0224 -0.0346  0.1013
    1IPC    GL170824  21.102   1.872   6.254  0.2193 -0.2061  0.0140
    1IPC    GL270825  21.348   1.991   6.086  0.0140  0.0544 -0.4030
    1IPC    C1B70826  21.770   1.936   6.002 -0.4918  0.0503  0.2902
    1IPC    D2B70827  22.020   1.800   5.578  0.0379 -0.0069 -0.1640
    1IPC    D3B70828  22.453   2.040   5.664  0.1943  0.1046 -0.1864
    1IPC    C4B70829  22.778   1.855   5.324 -0.1126 -0.1301 -0.0976
    1IPC    NC370830  22.986  25.154   6.919  0.1656 -0.1452  0.0146
    1IPC    PO470831  22.635  25.065   6.615 -0.1870  0.2154  0.4942
    1IPC    GL170832  23.032  25.205   6.360 -0.2462  0.0505 -0.0361
    1IPC    GL270833  23.323  25.325   6.132 -0.3033 -0.0479 -0.2249
    1IPC    C1B70834  23.522  25.160   5.794 -0.0948  0.1741  0.1759
    1IPC    D2B70835  23.510  25.046   5.386 -0.0904  0.2871  0.3910
    1IPC    D3B70836  23.136  24.858   5.190  0.2111  0.0841 -0.1834
    1IPC    C4B70837  23.028  24.671   4.823 -0.0967  0.2210 -0.0158
    1IPC    NC370838  25.854  17.287   6.863 -0.2753  0.0533  0.2939
    1IPC    PO470839  26.113  17.572   6.540 -0.1623  0.1927  0.3065
    1IPC    GL170840  26.041  17.687   6.088  0.1284 -0.1291  0.1426
    1IPC    GL270841  25.956  17.786   5.806  0.1433  0.1098 -0.1001
    1IPC    C1B70842  26.132  17.869   5.387  0.0525  0.2855 -0.1095
    1IPC    D2B70843  26.485  17.776   5.143 -0.2027  0.1939  0.1933
    1IPC    D3B70844  26.524  18.265   5.069 -0.1525 -0.5140 -0.0781
    1IPC    C4B70845  26.273  18.461   4.769 -0.1679  0.1536 -0.1430
    1IPC    NC370846   2.404  19.358   6.234  0.2941  0.1457  0.1839
    1IPC    PO470847   2.316  18.903   6.150 -0.1315  0.0219  0.2244
    1IPC    GL170848   2.422  19.025   5.772  0.2067  0.1762  0.2307
    1IPC    GL270849   2.503  18.948   5.507  0.0091 -0.0864 -0.1882
    1IPC    C1B70850   2.516  19.143   5.142  0.0057 -0.0454  0.0837
    1IPC    D2B70851   2.550  19.320   4.701 -0.1584  0.0071 -0.1619
    1IPC    D3B70852   2.425  19.419   4.272 -0.0355  0.3103  0.2340
    1IPC    C4B70853   2.084  19.556   4.062  0.2082 -0.0623  0.1692
    1IPC    NC370854  17.589   2.303   6.344 -0.0439 -0.0246 -0.1860
    1IPC    PO470855  17.966   2.309   6.635  0.0608  0.0446  0.0541
    1IPC    GL170856  18.065   2.118   6.277 -0.3231 -0.0870 -0.1098
    1IPC    GL270857  18.317   1.978   6.161  0.1980  0.0771 -0.1866
    1IPC    C1B70858  18.488   1.900   5.850  0.0429 -0.2018  0.1104
    1IPC    D2B70859  18.624   1.842   5.402  0.1798 -0.1617  0.0327
    1IPC    D3B70860  18.451   1.814   5.021 -0.0225  0.3323 -0.1576
    1IPC    C4B70861  18.583   1.703   4.711 -0.1210  0.0495 -0.1062
    1IPC    NC370862   3.159  27.308   6.661 -0.0730 -0.0749  0.1087
    1IPC    PO470863   3.320  27.795   6.410 -0.0770 -0.0395 -0.0658
    1IPC    GL170864   3.384  27.923   6.019  0.0115  0.1399 -0.1025
    1IPC    GL270865   3.509  27.765   5.748  0.2345  0.0411 -0.0377
    1IPC    C1B70866   3.394  27.498   5.416 -0.1880 -0.0903  0.0502
    1IPC    D2B70867   3.440  27.170   5.145  0.0437 -0.1319  0.2933
    1IPC    D3B70868   3.557  27.536   4.901  0.4701 -0.1124  0.0423
    1IPC    C4B70869   3.958  27.586   4.832 -0.1108  0.1488  0.2495
    1IPC    NC370870   4.152  20.103   6.745  0.0936  0.1434 -0.0609
    1IPC    PO470871   4.466  20.258   6.369  0.2632  0.0866 -0.1115
    1IPC    GL170872   4.256  20.323   6.028  0.1748  0.1747 -0.0154
    1IPC    GL270873   4.408  20.418   5.806  0.0133 -0.5543 -0.0179
    1IPC    C1B70874   4.674  20.352   5.429 -0.0058  0.4422 -0.1187
    1IPC    D2B70875   4.681  20.364   5.033  0.0605 -0.0949 -0.0858
    1IPC    D3B70876   4.833  20.091   4.718  0.3621 -0.1136  0.1205
    1IPC    C4B70877   5.043  19.730   4.817 -0.0244  0.2183  0.1404
    1IPC    NC370878  24.318   2.992   7.489  0.3653 -0.0721  0.1773
    1IPC    PO470879  24.550   3.245   7.218  0.0874  0.2632 -0.0656
    1IPC    GL170880  24.173   3.151   6.971 -0.5121  0.0674  0.1663
    1IPC    GL270881  24.063   3.016   6.742 -0.2252  0.1869 -0.2275
    1IPC    C1B70882  23.869   2.657   6.562  0.4040  0.4621 -0.0871
    1IPC    D2B70883  23.597   2.517   6.242 -0.2060 -0.0157 -0.2144
    1IPC    D3B70884  23.733   2.592   5.903  0.0515  0.2427 -0.0931
    1IPC    C4B70885  23.777   2.320   5.573  0.0384  0.0602  0.0913
    1IPC    NC370886  11.906  26.113   6.768  0.0904 -0.0423  0.1222
    1IPC    PO470887  12.201  26.373   6.588  0.2750 -0.0707 -0.0897
    1IPC    GL170888  12.213  26.499   6.167 -0.0265 -0.1001 -0.1534
    1IPC    GL270889  12.229  26.695   5.884 -0.2589  0.2759  0.1579
    1IPC    C1B70890  12.044  27.038   5.825 -0.3216 -0.1060  0.2187
    1IPC    D2B70891  12.026  27.359   5.582 -0.0727 -0.0542 -0.2245
    1IPC    D3B70892  12.117  27.453   5.198 -0.1331 -0.1167  0.0920
    1IPC    C4B70893  11.970  27.783   4.952  0.1549 -0.0128 -0.2340
    1IPC    NC370894  28.025   7.717   6.640  0.0440  0.3772  0.0830
    1IPC    PO470895  27.877   7.338   6.525 -0.0241 -0.1249  0.0181
    1IPC    GL170896  28.052   7.195   6.097  0.1916 -0.2861 -0.1530
    1IPC    GL270897  27.964   7.049   5.866  0.1882  0.1248  0.0528
    1IPC    C1B70898  27.721   6.943   5.558 -0.1890 -0.1109 -0.0154
    1IPC    D2B70899  27.704   6.709   5.111 -0.0598  0.0941 -0.5055
    1IPC    D3B70900  27.373   6.531   5.092  0.0420  0.0182  0.2193
    1IPC    C4B70901  26.931   6.628   4.857  0.1794  0.1576  0.0683
    1IPC    NC370902   2.830   8.696   6.910 -0.1173 -0.0850 -0.1641
    1IPC    PO470903   2.689   8.373   6.797  0.2748  0.0238 -0.2097
    1IPC    GL170904   2.486   8.304   6.510  0.0822 -0.0943  0.1871
    1IPC    GL270905   2.506   8.459   6.130 -0.3397  0.1454 -0.2184
    1IPC    C1B70906   2.506   8.731   5.762  0.0710 -0.1749  0.1512
    1IPC    D2B70907   2.475   8.720   5.339 -0.3458 -0.0900  0.1212
    1IPC    D3B70908   2.478   9.050   5.090 -0.3659 -0.0306 -0.3173
    1IPC    C4B70909   2.900   9.287   4.940 -0.1192 -0.2054 -0.0331
    1IPC    NC370910  10.451   2.691   8.052  0.0057 -0.2627  0.0107
    1IPC    PO470911  10.256   3.074   8.033  0.0432 -0.1267  0.1974
    1IPC    GL170912  10.044   2.926   7.656 -0.1119 -0.0524  0.2429
    1IPC    GL270913  10.093   2.880   7.286 -0.0393  0.0860 -0.0999
    1IPC    C1B70914  10.154   2.732   6.907 -0.0379  0.0649  0.0274
    1IPC    D2B70915  10.183   3.039   6.459  0.1898  0.1170 -0.1631
    1IPC    D3B70916  10.404   2.894   6.079 -0.1434 -0.0489 -0.1040
    1IPC    C4B70917  10.156   2.556   5.874 -0.1896  0.0195 -0.1182
    1IPC    NC370918   3.964  16.258   6.039  0.2930  0.1419  0.3913
    1IPC    PO470919   3.553  16.073   6.102  0.0246 -0.1557 -0.2681
    1IPC    GL170920   3.769  15.862   5.779 -0.1002 -0.3157 -0.0540
    1IPC    GL270921   3.693  15.812   5.521  0.0945  0.2703  0.2729
    1IPC    C1B70922   3.663  15.729   5.120  0.1110 -0.0430 -0.0278
    1IPC    D2B70923   3.509  15.633   4.773  0.0961 -0.0257  0.0152
    1IPC    D3B70924   3.484  16.056   4.598  0.2072 -0.4136 -0.2058
    1IPC    C4B70925   3.098  16.276   4.480  0.1096  0.1269  0.3483
    1IPC    NC370926  13.645  21.587   6.758  0.0887 -0.0374  0.0866
    1IPC    PO470927  13.365  21.680   6.425  0.0428 -0.0934  0.1114
    1IPC    GL170928  13.508  21.619   6.034  0.0108  0.0349  0.3892
    1IPC    GL270929  13.477  21.421   5.833 -0.0627 -0.1225  0.0513
    1IPC    C1B70930  13.608  21.511   5.359  0.0159 -0.1679  0.1751
    1IPC    D2B70931  13.882  21.906   5.101 -0.0012  0.1514  0.2672
    1IPC    D3B70932  13.891  21.849   4.676 -0.1141 -0.0142 -0.0230
    1IPC    C4B70933  14.075  21.595   4.317 -0.1356 -0.0394  0.0966
    1IPC    NC370934   2.288   0.418   6.972  0.0491  0.0235  0.0637
    1IPC    PO470935   1.895   0.579   6.876 -0.1526 -0.0609 -0.0982
    1IPC    GL170936   2.023   0.506   6.464  0.0608  0.0919 -0.3230
    1IPC    GL270937   2.164   0.671   6.267  0.2278  0.0564  0.3580
    1IPC    C1B70938   2.380   0.667   5.899 -0.0282  0.2394 -0.0839
    1IPC    D2B70939   2.651   1.054   5.717  0.0723 -0.1269  0.1152
    1IPC    D3B70940   2.512   1.136   5.310 -0.0859 -0.2500  0.0139
    1IPC    C4B70941   2.701   1.046   4.862  0.0925 -0.1576 -0.0594
    1IPC    NC370942  16.509   6.555   6.472  0.1296 -0.0426  0.1867
    1IPC    PO470943  16.606   6.084   6.352  0.0896  0.0569  0.2100
    1IPC    GL170944  16.645   5.740   6.071 -0.0072  0.0295  0.2503
    1IPC    GL270945  16.598   5.572   5.703  0.2589 -0.1529  0.3135
    1IPC    C1B70946  16.571   5.755   5.298 -0.1715  0.1904  0.0051
    1IPC    D2B70947  16.314   5.797   4.966  0.0697  0.0490 -0.0925
    1IPC    D3B70948  16.176   6.039   4.689 -0.2039 -0.1116  0.1878
    1IPC    C4B70949  15.786   5.993   4.493 -0.1331  0.1643 -0.2147
    1IPC    NC370950  23.986  23.331   6.952 -0.0290  0.3836 -0.1483
    1IPC    PO470951  23.761  23.350   6.693  0.2156  0.0459  0.1423
    1IPC    GL170952  23.939  23.382   6.218 -0.0855  0.0678 -0.0830
    1IPC    GL270953  23.853  23.454   5.904  0.0199 -0.2799  0.1272
    1IPC    C1B70954  23.852  23.181   5.577  0.0754  0.2012 -0.3158
    1IPC    D2B70955  23.927  22.956   5.159  0.0140  0.1132 -0.0907
    1IPC    D3B70956  24.161  22.614   5.257 -0.1027 -0.1306 -0.0762
    1IPC    C4B70957  24.199  22.542   5.743  0.0095 -0.3049  0.0936
    1IPC    NC370958   5.925  15.644   5.897 -0.1545  0.0921 -0.0818
    1IPC    PO470959   5.715  15.349   6.241 -0.0007 -0.0903 -0.0133
    1IPC    GL170960   5.725  15.170   5.826  0.1392 -0.2822 -0.3499
    1IPC    GL270961   5.842  15.052   5.580  0.1244  0.0326  0.0354
    1IPC    C1B70962   5.981  14.708   5.312  0.2244 -0.1499  0.0656
    1IPC    D2B70963   6.224  14.305   5.419  0.0302  0.1169  0.0162
    1IPC    D3B70964   6.191  14.248   4.997 -0.4719  0.3086  0.0758
    1IPC    C4B70965   5.871  14.391   4.758 -0.2149 -0.0663 -0.0345
    1IPC    NC370966   5.856   9.892   7.214 -0.1545  0.0020 -0.1566
    1IPC    PO470967   5.888  10.247   6.862  0.1975  0.1329 -0.3379
    1IPC    GL170968   6.142  10.222   6.519  0.0928 -0.0266  0.0894
    1IPC    GL270969   6.198  10.253   6.126  0.0382 -0.1097  0.0703
    1IPC    C1B70970   6.193  10.277   5.668 -0.1954  0.0535  0.2417
    1IPC    D2B70971   6.278  10.235   5.280  0.1363 -0.2422 -0.0432
    1IPC    D3B70972   5.815  10.295   5.320 -0.1322 -0.0795 -0.1690
    1IPC    C4B70973   5.512  10.265   5.006  0.0505 -0.2649 -0.2208
    1IPC    NC370974  13.280   5.007   7.531 -0.0384 -0.0850  0.0804
    1IPC    PO470975  13.379   4.714   7.220  0.0396 -0.4715 -0.4665
    1IPC    GL170976  13.385   4.908   6.819 -0.2957  0.0500 -0.3292
    1IPC    GL270977  13.396   4.887   6.511 -0.2043  0.0863  0.2104
    1IPC    C1B70978  13.297   4.825   6.182 -0.2358 -0.1632 -0.1952
    1IPC    D2B70979  13.205   4.892   5.735  0.0993 -0.1882 -0.1875
    1IPC    D3B70980  12.914   4.657   5.604 -0.2281 -0.2384  0.2380
    1IPC    C4B70981  12.565   4.882   5.761 -0.2337 -0.0010 -0.0006
    1IPC    NC370982   7.619  25.639   6.993 -0.0156  0.0691 -0.3989
    1IPC    PO470983   7.349  25.913   6.858 -0.1313  0.2157 -0.2307
    1IPC    GL170984   7.473  26.178   6.462  0.2799  0.2863  0.0842
    1IPC    GL270985   7.523  26.196   6.134 -0.0658 -0.1185  0.3540
    1IPC    C1B70986   7.478  26.451   5.788 -0.0354  0.0346 -0.2261
    1IPC    D2B70987   7.419  26.742   5.439  0.0532  0.1446 -0.2020
    1IPC    D3B70988   7.300  26.688   5.021 -0.0042  0.1676  0.2067
    1IPC    C4B70989   7.286  26.327   4.696  0.0885  0.1679  0.0972
    1IPC    NC370990  20.293   1.519   6.601 -0.1082  0.1103  0.1335
    1IPC    PO470991  19.947   1.183   6.562  0.1788 -0.1721  0.1639
    1IPC    GL170992  20.252   1.108   6.372  0.1401  0.3733 -0.0417
    1IPC    GL270993  20.435   0.964   6.110  0.0560  0.1030  0.0923
    1IPC    C1B70994  20.401   0.605   5.781  0.1728  0.1444  0.1091
    1IPC    D2B70995  20.449   0.403   5.385  0.1107 -0.0046 -0.0168
    1IPC    D3B70996  20.741   0.008   5.425 -0.0595  0.0864 -0.0141
    1IPC    C4B70997  20.814  -0.082   5.065 -0.0214  0.0290  0.0175
    1IPC    NC370998   2.111  28.489   6.806 -0.0247 -0.0099  0.0175
    1IPC    PO470999   2.440  28.196   6.499 -0.0203  0.1516  0.2253
    1IPC    GL171000   2.419  28.225   6.060  0.2050 -0.0654  0.1140
    1IPC    GL271001   2.403  28.538   5.949  0.0022 -0.2095  0.0556
    1IPC    C1B71002   2.280  28.804   5.602  0.0597 -0.1604 -0.1364
    1IPC    D2B71003   2.140  29.096   5.328  0.1047  0.1845  0.0917
    1IPC    D3B71004   1.702  29.294   5.336  0.1819  0.1447 -0.3424
    1IPC    C4B71005   1.422  28.930   5.365  0.1065 -0.1766  0.0631
    1IPC    NC371006   4.051  13.607   6.230 -0.3684 -0.3018 -0.0712
    1IPC    PO471007   4.454  13.871   6.421  0.0700 -0.2765  0.0371
    1IPC    GL171008   4.542  13.748   6.007  0.0320 -0.0645 -0.0223
    1IPC    GL271009   4.593  13.701   5.700  0.1465  0.1569 -0.1417
    1IPC    C1B71010   4.609  13.752   5.239 -0.2344  0.4176 -0.1324
    1IPC    D2B71011   4.558  13.694   4.754  0.1683  0.5476  0.0895
    1IPC    D3B71012   4.167  13.459   4.900  0.1952 -0.3225 -0.3496
    1IPC    C4B71013   3.788  13.618   5.124 -0.0703 -0.2040  0.2620
    1IPC    NC371014  15.469   6.680   7.267  0.2415  0.0638 -0.0404
    1IPC    PO471015  15.498   6.406   6.950  0.0632 -0.3279  0.1693
    1IPC    GL171016  15.329   6.447   6.503  0.0857  0.1109  0.1162
    1IPC    GL271017  15.493   6.519   6.319 -0.2066 -0.2535  0.0949
    1IPC    C1B71018  15.420   6.740   5.866  0.0793  0.3754  0.0882
    1IPC    D2B71019  15.622   6.964   5.604 -0.1133 -0.0139 -0.2874
    1IPC    D3B71020  15.760   7.286   5.353 -0.1661  0.0482  0.2057
    1IPC    C4B71021  15.994   7.682   5.520 -0.2977  0.4081 -0.2335
    1IPC    NC371022   0.237  26.917   7.020  0.0145 -0.2184  0.2983
    1IPC    PO471023   0.378  27.240   6.714  0.1415  0.0042 -0.3592
    1IPC    GL171024   0.444  27.395   6.319  0.2245 -0.0203  0.1898
    1IPC    GL271025   0.634  27.445   6.023  0.1239 -0.1237  0.2492
    1IPC    C1B71026   0.609  27.633   5.559 -0.2174  0.2760  0.0366
    1IPC    D2B71027   0.375  27.688   5.180  0.0253  0.1447 -0.0614
    1IPC    D3B71028   0.583  27.768   4.820 -0.2155  0.0744 -0.4334
    1IPC    C4B71029   0.970  27.819   4.847  0.0968  0.0003  0.0277
    1IPC    NC371030   6.029  20.285   5.636  0.1596 -0.2604  0.0836
    1IPC    PO471031   5.676  20.154   5.909  0.1266  0.0443 -0.0291
    1IPC    GL171032   5.580  20.053   5.452 -0.2022  0.0948  0.0426
    1IPC    GL271033   5.628  20.322   5.238 -0.1625  0.1317  0.4259
    1IPC    C1B71034   5.815  20.318   4.883  0.1254  0.1122 -0.0175
    1IPC    D2B71035   5.956  20.452   4.377  0.1127  0.2629  0.0135
    1IPC    D3B71036   5.527  20.491   4.404  0.0551 -0.1738 -0.0060
    1IPC    C4B71037   5.337  20.340   4.044  0.2766 -0.1612  0.1815
    1IPC    NC371038   4.628   8.458   6.842  0.0876 -0.1786 -0.1404
    1IPC    PO471039   4.539   8.851   6.859 -0.0188  0.1935 -0.1425
    1IPC    GL171040   4.529   8.782   6.462  0.1510 -0.2660 -0.3986
    1IPC    GL271041   4.614   8.497   6.245  0.1321  0.2274  0.1358
    1IPC    C1B71042   4.294   8.206   6.003  0.0092 -0.0575  0.4313
    1IPC    D2B71043   3.852   8.208   5.858 -0.0266  0.0543 -0.1230
    1IPC    D3B71044   3.922   7.924   5.600 -0.1313 -0.2440  0.1912
    1IPC    C4B71045   4.243   7.677   5.331  0.1254  0.3382 -0.0022
    1IPC    NC371046  20.373  27.016   7.193 -0.1800  0.0629 -0.0278
    1IPC    PO471047  20.160  27.406   7.043 -0.2283 -0.1994  0.1718
    1IPC    GL171048  19.995  26.919   6.816  0.0173 -0.1098  0.0549
    1IPC    GL271049  19.985  26.756   6.455 -0.0509 -0.0087  0.1079
    1IPC    C1B71050  20.308  26.795   6.177  0.1985 -0.2779  0.0857
    1IPC    D2B71051  20.334  26.837   5.674  0.1686 -0.0472 -0.0881
    1IPC    D3B71052  20.065  26.613   5.438  0.1094  0.0946 -0.1634
    1IPC    C4B71053  19.757  26.244   5.588  0.6253  0.0840  0.2725
    1IPC    NC371054   7.014  26.306   7.091  0.0143  0.0016 -0.0543
    1IPC    PO471055   6.725  26.490   6.814  0.0054 -0.1144  0.2249
    1IPC    GL171056   6.696  26.647   6.401 -0.1063 -0.0189  0.1038
    1IPC    GL271057   6.687  26.839   6.213 -0.0916 -0.0516  0.1823
    1IPC    C1B71058   6.642  27.040   5.821  0.0799 -0.2326 -0.0476
    1IPC    D2B71059   6.733  27.307   5.478  0.2586  0.3689 -0.0690
    1IPC    D3B71060   6.351  27.056   5.435  0.0166  0.2816  0.2833
    1IPC    C4B71061   6.235  26.793   5.187 -0.1820 -0.0395  0.1730
    1IPC    NC371062  15.910  25.030   7.299  0.0019 -0.2341  0.2679
    1IPC    PO471063  16.010  25.446   7.336 -0.2946 -0.0515  0.1063
    1IPC    GL171064  16.142  25.700   6.911  0.1833  0.0316  0.2414
    1IPC    GL271065  16.178  25.794   6.588 -0.1033  0.0118 -0.1979
    1IPC    C1B71066  16.234  26.022   6.222 -0.1257  0.0496 -0.0343
    1IPC    D2B71067  16.282  26.170   5.753  0.0991  0.1199  0.2965
    1IPC    D3B71068  16.218  26.447   5.404 -0.3156 -0.0305  0.1311
    1IPC    C4B71069  15.852  26.397   5.148  0.0422 -0.0602  0.2075
    1IPC    NC371070  27.080   0.511   6.973  0.2787  0.2269 -0.1751
    1IPC    PO471071  26.967   0.038   6.785  0.1411  0.4054  0.1148
    1IPC    GL171072  27.011   0.191   6.405 -0.0820 -0.0608 -0.1232
    1IPC    GL271073  26.986   0.245   6.141  0.0275  0.1360 -0.0190
    1IPC    C1B71074  26.895   0.327   5.666 -0.0725 -0.3074 -0.3626
    1IPC    D2B71075  26.815   0.133   5.251 -0.3094 -0.0624  0.1581
    1IPC    D3B71076  26.868  -0.272   5.485  0.1333  0.1073  0.0771
    1IPC    C4B71077  26.842  -0.154   5.873 -0.1181  0.0559  0.1503
    1IPC    NC371078  16.911  26.705   7.307 -0.1714  0.2457 -0.1903
    1IPC    PO471079  17.262  26.719   7.160 -0.2726 -0.3603 -0.1242
    1IPC    GL171080  17.092  27.031   6.916 -0.1699 -0.0232  0.1386
    1IPC    GL271081  17.167  27.220   6.635  0.3051  0.2156  0.1032
    1IPC    C1B71082  17.242  27.089   6.263  0.1893 -0.1880  0.2494
    1IPC    D2B71083  17.134  27.344   5.875  0.1710 -0.0566 -0.2625
    1IPC    D3B71084  17.322  27.379   5.444 -0.1189 -0.1608  0.1508
    1IPC    C4B71085  17.614  27.605   5.204 -0.0214 -0.1753 -0.0653
    1IPC    NC371086  22.493  26.127   7.296  0.0075  0.0920  0.0214
    1IPC    PO471087  22.448  25.966   6.878 -0.0727  0.0132  0.0736
    1IPC    GL171088  22.329  25.890   6.475 -0.0034  0.2477 -0.1492
    1IPC    GL271089  22.239  26.135   6.210  0.1612  0.0714  0.0399
    1IPC    C1B71090  22.230  26.020   5.723 -0.2441 -0.4706  0.0691
    1IPC    D2B71091  21.947  26.075   5.319  0.1011  0.0676 -0.1238
    1IPC    D3B71092  22.259  25.759   5.127  0.2232  0.0364 -0.1477
    1IPC    C4B71093  22.684  25.893   5.094 -0.2700 -0.0859  0.3902
    1IPC    NC371094   4.536  21.847   6.326 -0.1958  0.2342 -0.0106
    1IPC    PO471095   4.710  22.193   6.195  0.0468  0.4040  0.2679
    1IPC    GL171096   4.901  22.126   5.833 -0.0508  0.4070 -0.3837
    1IPC    GL271097   4.903  22.218   5.514 -0.1511 -0.3044  0.0302
    1IPC    C1B71098   4.879  22.316   5.013  0.2417  0.0171  0.2966
    1IPC    D2B71099   5.049  22.223   4.668 -0.1455  0.1568  0.2323
    1IPC    D3B71100   4.712  21.920   4.554  0.0150 -0.0302 -0.0304
    1IPC    C4B71101   4.892  21.754   4.114  0.1244 -0.1162 -0.0882
    1IPC    NC371102  18.852  25.102   7.328 -0.0084 -0.3296 -0.0497
    1IPC    PO471103  18.709  25.542   7.140  0.0673 -0.1029 -0.0062
    1IPC    GL171104  18.719  25.653   6.651 -0.1097  0.2131 -0.3480
    1IPC    GL271105  18.835  25.582   6.338  0.1011 -0.1926  0.3170
    1IPC    C1B71106  19.009  25.627   5.965  0.0086  0.1686 -0.1001
    1IPC    D2B71107  18.892  25.623   5.581  0.3950  0.0098 -0.0898
    1IPC    D3B71108  18.743  25.294   5.390 -0.0207  0.0880 -0.0051
    1IPC    C4B71109  18.318  25.067   5.321 -0.0280  0.3075 -0.1433
    1IPC    NC371110   4.614  11.748   7.281 -0.0601  0.0764  0.1217
    1IPC    PO471111   4.444  11.567   6.954  0.0403  0.2268  0.2201
    1IPC    GL171112   4.104  11.598   6.551  0.4044 -0.1970 -0.0963
    1IPC    GL271113   4.107  11.524   6.151 -0.2221 -0.0556 -0.0230
    1IPC    C1B71114   4.180  11.253   5.773  0.1557  0.0333 -0.0814
    1IPC    D2B71115   3.961  11.401   5.344 -0.0597  0.1701 -0.0654
    1IPC    D3B71116   4.140  10.984   5.049 -0.0305 -0.1671  0.0494
    1IPC    C4B71117   4.205  10.831   4.534 -0.1173 -0.0949 -0.2515
    1IPC    NC371118  25.361   0.241   7.139  0.1474 -0.4482  0.3324
    1IPC    PO471119  25.423   0.571   6.925 -0.0612  0.0474  0.0786
    1IPC    GL171120  25.147   0.369   6.631 -0.4309 -0.1894  0.0446
    1IPC    GL271121  25.117   0.410   6.307 -0.2018  0.1486  0.1987
    1IPC    C1B71122  25.072   0.142   5.880 -0.2101  0.0902 -0.0247
    1IPC    D2B71123  25.301   0.052   5.457  0.3926 -0.0029 -0.1135
    1IPC    D3B71124  25.671   0.143   5.537  0.0505 -0.2266  0.1248
    1IPC    C4B71125  25.888  -0.138   5.256 -0.0264 -0.0348  0.1058
    1IPC    NC371126  24.045  15.727   6.417 -0.2957  0.0267 -0.0394
    1IPC    PO471127  23.681  15.504   6.360  0.1920  0.3481  0.1015
    1IPC    GL171128  23.752  15.421   5.890 -0.0039  0.0816  0.1228
    1IPC    GL271129  23.722  15.575   5.620 -0.2619  0.1138 -0.0641
    1IPC    C1B71130  23.885  15.690   5.318  0.2504 -0.1098  0.1277
    1IPC    D2B71131  23.948  15.669   4.852  0.0694  0.0705  0.1851
    1IPC    D3B71132  23.610  15.797   4.442 -0.0416  0.0596  0.3034
    1IPC    C4B71133  23.791  16.019   4.114 -0.2280  0.0484  0.1664
    1IPC    NC371134  29.228  20.599   5.983  0.2215  0.3259  0.0835
    1IPC    PO471135  29.346  20.317   6.372 -0.0819  0.1906 -0.1016
    1IPC    GL171136  29.167  20.087   6.043  0.0809  0.0354  0.0163
    1IPC    GL271137  29.035  19.981   5.702  0.1891  0.2260 -0.0734
    1IPC    C1B71138  28.937  19.838   5.229 -0.0694  0.0164  0.1092
    1IPC    D2B71139  29.010  20.065   4.916 -0.1524  0.0569  0.2516
    1IPC    D3B71140  29.235  20.200   5.271 -0.2164  0.1925  0.1640
    1IPC    C4B71141  29.483  20.078   5.510  0.1336  0.0442 -0.1616
    1IPC    NC371142   6.398  11.226   7.278 -0.0064  0.2950  0.1085
    1IPC    PO471143   6.399  10.963   6.894  0.0773 -0.1049  0.1657
    1IPC    GL171144   6.435  10.769   6.614 -0.0915 -0.0146 -0.0802
    1IPC    GL271145   6.358  10.734   6.274 -0.0071  0.0796  0.2466
    1IPC    C1B71146   6.272  10.762   5.849 -0.1578  0.0724  0.0244
    1IPC    D2B71147   6.472  10.760   5.489  0.0555 -0.4076 -0.0905
    1IPC    D3B71148   6.433  11.176   5.549 -0.1212  0.1755  0.1567
    1IPC    C4B71149   6.390  11.304   5.978  0.0866  0.1107  0.0778
    1IPC    NC371150  21.103  19.994   6.941  0.2057 -0.0027  0.2356
    1IPC    PO471151  21.395  20.343   6.920 -0.3063  0.2141  0.3915
    1IPC    GL171152  21.492  20.470   6.563  0.0755  0.0489 -0.1984
    1IPC    GL271153  21.492  20.333   6.252  0.0412  0.0930  0.2845
    1IPC    C1B71154  21.452  20.423   5.892  0.0783 -0.0546 -0.0970
    1IPC    D2B71155  21.358  20.465   5.457 -0.1639  0.1076  0.0735
    1IPC    D3B71156  21.675  20.478   5.139 -0.0966 -0.3727  0.0622
    1IPC    C4B71157  22.057  20.305   4.996  0.1137  0.2867  0.2939
    1IPC    NC371158   3.270  12.617   6.694 -0.2244  0.1376  0.1284
    1IPC    PO471159   3.442  12.812   6.363 -0.2044  0.0302  0.0279
    1IPC    GL171160   3.625  12.601   6.026 -0.1938  0.0268  0.0203
    1IPC    GL271161   3.869  12.556   5.790 -0.1085 -0.1018 -0.0771
    1IPC    C1B71162   4.240  12.278   5.613  0.1157 -0.2730 -0.1404
    1IPC    D2B71163   4.728  12.317   5.346 -0.2332 -0.0209 -0.0302
    1IPC    D3B71164   4.836  12.242   4.934  0.0849  0.1795 -0.0243
    1IPC    C4B71165   4.715  11.777   4.799 -0.0286 -0.1827  0.2241
    1IPC    NC371166   9.507   2.114   7.729 -0.0644 -0.1178 -0.1506
    1IPC    PO471167   9.825   2.242   7.615  0.1145 -0.1528  0.1449
    1IPC    GL171168   9.978   2.322   7.218 -0.0164  0.0653 -0.1989
    1IPC    GL271169   9.824   2.287   6.959 -0.0877 -0.0009 -0.3700
    1IPC    C1B71170   9.700   2.162   6.503 -0.3234 -0.0371  0.2660
    1IPC    D2B71171   9.570   2.063   6.071 -0.0467  0.0321  0.1910
    1IPC    D3B71172   9.889   2.141   5.700 -0.0950 -0.0143  0.1047
    1IPC    C4B71173   9.860   2.446   5.327 -0.2607 -0.0693 -0.1594
    1IPC    NC371174  27.818   5.932   6.801 -0.1403 -0.0925 -0.0613
    1IPC    PO471175  28.001   5.873   6.446 -0.2195  0.2736 -0.0362
    1IPC    GL171176  27.870   5.797   6.134 -0.0407  0.1966  0.2468
    1IPC    GL271177  27.908   5.582   5.829  0.2123 -0.0502  0.2581
    1IPC    C1B71178  28.149   5.446   5.549 -0.1044  0.0325 -0.3875
    1IPC    D2B71179  28.280   5.206   5.271 -0.0440  0.0066  0.2195
    1IPC    D3B71180  28.459   5.395   4.876 -0.0660 -0.0131 -0.0603
    1IPC    C4B71181  28.188   5.340   4.438 -0.0068 -0.0537 -0.4510
    1IPC    NC371182   9.311  23.642   6.576  0.2180  0.1817 -0.2930
    1IPC    PO471183   9.381  23.200   6.232 -0.0476  0.2234  0.3038
    1IPC    GL171184   9.361  23.353   5.804  0.2303 -0.3595  0.1106
    1IPC    GL271185   9.254  23.241   5.492 -0.0473  0.2287  0.1102
    1IPC    C1B71186   9.233  23.399   5.098  0.1386  0.0645 -0.0611
    1IPC    D2B71187   9.067  23.568   4.709  0.2109  0.0287  0.3863
    1IPC    D3B71188   9.061  23.915   4.454  0.0008 -0.0417 -0.0696
    1IPC    C4B71189   8.619  24.067   4.514  0.0063 -0.0272 -0.0226
    1IPC    NC371190  19.912  25.872   6.936  0.1888  0.1835  0.4317
    1IPC    PO471191  19.475  26.020   6.990  0.4301  0.1265  0.1517
    1IPC    GL171192  19.581  26.051   6.592  0.5705  0.0975 -0.0611
    1IPC    GL271193  19.772  26.149   6.409  0.3085  0.1474  0.4052
    1IPC    C1B71194  19.907  26.334   6.138 -0.3265 -0.1547 -0.0314
    1IPC    D2B71195  19.853  26.697   5.969  0.1309 -0.0371  0.0819
    1IPC    D3B71196  19.561  26.700   5.838  0.0176  0.0738  0.1072
    1IPC    C4B71197  19.218  26.614   5.952 -0.0096 -0.0577 -0.1440
    1IPC    NC371198  17.709  22.041   7.520  0.0929 -0.0101 -0.1353
    1IPC    PO471199  17.942  21.612   7.539  0.1223  0.1278  0.0343
    1IPC    GL171200  18.029  21.400   7.186 -0.1034 -0.0636 -0.0169
    1IPC    GL271201  18.052  21.405   6.883  0.1268  0.0440  0.2442
    1IPC    C1B71202  17.916  21.540   6.551  0.1686 -0.0585  0.1895
    1IPC    D2B71203  17.950  21.381   6.163 -0.1427 -0.0425 -0.1903
    1IPC    D3B71204  18.318  21.245   5.902 -0.2890 -0.1527 -0.0080
    1IPC    C4B71205  18.700  20.966   5.661  0.2050  0.1007  0.3083
    1IPC    NC371206   2.710  20.997   6.498  0.1390 -0.1328 -0.3969
    1IPC    PO471207   3.058  20.942   6.346  0.2316 -0.1883  0.0837
    1IPC    GL171208   2.866  20.738   5.985 -0.0479  0.2424 -0.1030
    1IPC    GL271209   2.954  20.485   5.777  0.1084 -0.2904  0.3007
    1IPC    C1B71210   3.168  20.493   5.402  0.2691  0.1269  0.0982
    1IPC    D2B71211   3.349  20.272   5.062 -0.0095  0.0966 -0.1311
    1IPC    D3B71212   3.248  20.007   4.673  0.1870 -0.2679 -0.2366
    1IPC    C4B71213   3.267  20.181   4.276  0.0508  0.4020 -0.1079
    1IPC    NC371214   3.919  19.456   6.111  0.1191  0.0872  0.0514
    1IPC    PO471215   3.834  19.017   6.055  0.1299 -0.0549 -0.2214
    1IPC    GL171216   4.054  18.849   5.681 -0.1417  0.1441  0.0608
    1IPC    GL271217   4.096  18.767   5.394  0.0712  0.0754 -0.1930
    1IPC    C1B71218   4.212  19.105   5.100  0.2975 -0.1954 -0.0568
    1IPC    D2B71219   4.199  19.302   4.667 -0.0917  0.0402  0.0634
    1IPC    D3B71220   4.014  19.161   4.281 -0.1875 -0.0300 -0.0156
    1IPC    C4B71221   4.029  18.827   3.931  0.1802  0.4043  0.1524
    1IPC    NC371222  26.199   4.229   6.855 -0.2724 -0.0002 -0.1783
    1IPC    PO471223  26.086   4.424   6.500 -0.0452  0.0706  0.0217
    1IPC    GL171224  26.248   4.548   6.224 -0.2291 -0.1092  0.0453
    1IPC    GL271225  26.385   4.501   6.001  0.1566 -0.1158 -0.1375
    1IPC    C1B71226  26.394   4.547   5.576  0.1791  0.1523 -0.0616
    1IPC    D2B71227  26.288   4.426   5.163  0.0137 -0.0932  0.0925
    1IPC    D3B71228  26.617   4.215   4.878  0.1729  0.1978 -0.1080
    1IPC    C4B71229  26.897   4.656   4.781  0.2682 -0.1252 -0.0188
    1IPC    NC371230   1.920  28.254   7.322 -0.0426  0.0904  0.1068
    1IPC    PO471231   1.628  28.323   7.035 -0.3211 -0.0373 -0.1446
    1IPC    GL171232   1.362  28.505   6.640 -0.2813  0.2849  0.2306
    1IPC    GL271233   1.109  28.354   6.459  0.0650 -0.2423  0.0169
    1IPC    C1B71234   1.019  28.411   6.037  0.1712 -0.1698  0.1163
    1IPC    D2B71235   0.953  28.491   5.636 -0.0619  0.0720 -0.2766
    1IPC    D3B71236   0.676  28.603   5.308 -0.1416  0.0625  0.1588
    1IPC    C4B71237   0.514  28.490   4.904  0.0625 -0.1065 -0.3188
    1IPC    NC371238   9.998  28.551   7.516  0.0723  0.0252  0.0347
    1IPC    PO471239   9.651  28.750   7.350  0.0405 -0.1530  0.0653
    1IPC    GL171240   9.507  28.641   6.948 -0.0130 -0.0211 -0.0328
    1IPC    GL271241   9.632  28.701   6.684  0.0135  0.0367  0.2892
    1IPC    C1B71242   9.633  28.693   6.288  0.1352  0.0515  0.0633
    1IPC    D2B71243   9.857  28.587   5.853  0.0405 -0.1140 -0.1994
    1IPC    D3B71244  10.271  28.608   6.096  0.0778 -0.1975 -0.0688
    1IPC    C4B71245  10.519  28.797   5.903  0.0573  0.0345  0.0458
    1IPC    NC371246  23.149  24.013   6.799  0.0602 -0.2785  0.0268
    1IPC    PO471247  22.806  24.139   6.965 -0.1347 -0.2579  0.1930
    1IPC    GL171248  22.682  24.053   6.540 -0.0496 -0.1397  0.0727
    1IPC    GL271249  22.732  23.831   6.284 -0.0144  0.1977  0.1397
    1IPC    C1B71250  22.782  23.666   5.798 -0.1262  0.0251 -0.3649
    1IPC    D2B71251  22.993  23.856   5.412 -0.1128  0.1576 -0.1276
    1IPC    D3B71252  23.462  23.911   5.277  0.0443  0.1471 -0.0328
    1IPC    C4B71253  23.576  23.844   4.949  0.1485  0.1299  0.0554
    1IPC    NC371254   3.251   6.487   7.122 -0.0265 -0.0943 -0.2433
    1IPC    PO471255   3.617   6.859   7.150 -0.3236 -0.2422  0.0059
    1IPC    GL171256   3.578   6.565   6.705  0.2028 -0.4556 -0.1341
    1IPC    GL271257   3.654   6.316   6.371  0.0422 -0.3051 -0.0498
    1IPC    C1B71258   3.626   6.262   5.917  0.2364 -0.1491  0.0063
    1IPC    D2B71259   3.689   6.311   5.479 -0.1560  0.1278 -0.4871
    1IPC    D3B71260   3.458   6.650   5.497 -0.0603  0.0230 -0.1377
    1IPC    C4B71261   3.554   7.018   5.115 -0.0638 -0.3035 -0.0025
    1IPC    NC371262   7.207   6.132   7.652 -0.0262  0.1351 -0.0275
    1IPC    PO471263   6.875   6.289   7.293 -0.1531 -0.0150 -0.7060
    1IPC    GL171264   6.871   6.307   6.874  0.0369 -0.3586  0.2688
    1IPC    GL271265   7.060   6.267   6.552 -0.2310 -0.0957 -0.2181
    1IPC    C1B71266   7.327   6.075   6.285 -0.0464  0.0894 -0.3712
    1IPC    D2B71267   7.712   5.887   5.954  0.1013 -0.2446 -0.0506
    1IPC    D3B71268   7.398   6.012   5.631 -0.1715 -0.2161  0.1449
    1IPC    C4B71269   7.056   5.576   5.528 -0.2522 -0.0723 -0.2318
    1IPC    NC371270   4.922  23.182   6.755 -0.0308  0.2555  0.0772
    1IPC    PO471271   5.064  23.346   6.392  0.0466  0.6026  0.1666
    1IPC    GL171272   5.143  23.128   6.040 -0.0010 -0.0946 -0.0016
    1IPC    GL271273   5.232  22.958   5.905  0.0840 -0.2213  0.0074
    1IPC    C1B71274   5.541  22.933   5.603 -0.2944 -0.0922  0.1305
    1IPC    D2B71275   5.557  22.867   5.228  0.0748 -0.0431  0.0312
    1IPC    D3B71276   5.781  22.512   5.276 -0.2278  0.0364  0.2460
    1IPC    C4B71277   5.905  22.138   5.066  0.3012 -0.0504 -0.1532
    1IPC    NC371278   2.073  20.152   6.623  0.2062  0.1138 -0.2053
    1IPC    PO471279   2.452  19.921   6.415  0.0380 -0.1444  0.0502
    1IPC    GL171280   2.483  20.293   6.135  0.0013  0.1681  0.1428
    1IPC    GL271281   2.509  20.252   5.868  0.0408  0.3844  0.0043
    1IPC    C1B71282   2.647  20.202   5.389 -0.1680  0.1936 -0.2597
    1IPC    D2B71283   2.889  20.399   5.019  0.0245 -0.2004 -0.2036
    1IPC    D3B71284   2.768  20.821   4.821  0.1640  0.1482 -0.2091
    1IPC    C4B71285   2.452  20.606   4.525 -0.3739  0.4649  0.0680
    1IPC    NC371286  17.594   3.044   7.181  0.0884  0.0403  0.1297
    1IPC    PO471287  17.295   3.073   6.788  0.0435 -0.1839  0.1575
    1IPC    GL171288  17.454   3.360   6.480  0.0344 -0.0354 -0.1962
    1IPC    GL271289  17.313   3.371   6.099 -0.2396 -0.2203  0.0673
    1IPC    C1B71290  17.022   3.472   5.842 -0.0146 -0.2049 -0.3256
    1IPC    D2B71291  17.161   3.417   5.477 -0.1603  0.2182 -0.1844
    1IPC    D3B71292  17.337   3.780   5.294  0.0727  0.0944  0.1716
    1IPC    C4B71293  17.044   3.872   5.082  0.2805  0.1233 -0.1306
    1IPC    NC371294  27.254  23.356   6.167  0.0858 -0.3758  0.0208
    1IPC    PO471295  26.977  23.679   6.418 -0.1430 -0.0753 -0.2073
    1IPC    GL171296  26.967  23.710   6.064 -0.1997 -0.0774 -0.0775
    1IPC    GL271297  26.656  23.526   5.856  0.1998  0.3215 -0.1649
    1IPC    C1B71298  26.372  23.592   5.616  0.0309 -0.1005 -0.2329
    1IPC    D2B71299  26.133  23.495   5.387 -0.0344 -0.1858  0.0364
    1IPC    D3B71300  26.241  23.342   5.028 -0.2455  0.1887 -0.2075
    1IPC    C4B71301  26.123  22.861   5.057 -0.0072  0.2269 -0.2278
    1IPC    NC371302  25.842  26.392   6.823 -0.1862  0.2386  0.2945
    1IPC    PO471303  25.790  26.823   6.664 -0.0903 -0.1588  0.0273
    1IPC    GL171304  25.449  27.035   6.388 -0.0232  0.1001 -0.0378
    1IPC    GL271305  25.196  27.067   6.226  0.3385  0.1144 -0.0770
    1IPC    C1B71306  25.135  27.236   5.760 -0.0658  0.0529  0.1248
    1IPC    D2B71307  25.033  27.340   5.329 -0.0848  0.1410  0.2026
    1IPC    D3B71308  24.796  27.528   4.959 -0.0618 -0.1016  0.2110
    1IPC    C4B71309  24.442  27.639   4.782  0.0712 -0.1040  0.2643
    1IPC    NC371310   2.768   9.514   7.157  0.3380 -0.0892 -0.1339
    1IPC    PO471311   2.767   9.188   6.814  0.0888  0.1942  0.0447
    1IPC    GL171312   2.653   8.916   6.479 -0.0472 -0.1966 -0.2533
    1IPC    GL271313   2.765   8.869   6.179 -0.1650 -0.1479 -0.3507
    1IPC    C1B71314   2.991   8.664   5.920 -0.1048 -0.0102 -0.1721
    1IPC    D2B71315   3.009   8.749   5.431 -0.0770  0.1682  0.0704
    1IPC    D3B71316   2.826   8.402   5.293  0.0482 -0.0092 -0.3675
    1IPC    C4B71317   3.025   8.233   4.873 -0.1991 -0.1915 -0.2365
    1IPC    NC371318  15.103  25.422   7.160  0.0507  0.0653  0.0916
    1IPC    PO471319  15.124  25.184   6.829  0.0100 -0.2874  0.2958
    1IPC    GL171320  15.375  25.184   6.349 -0.0307  0.0344 -0.0059
    1IPC    GL271321  15.659  25.062   6.215 -0.0040 -0.3562 -0.3452
    1IPC    C1B71322  15.873  25.176   5.789 -0.0535  0.1333 -0.0558
    1IPC    D2B71323  15.929  25.004   5.234 -0.2811 -0.2767 -0.1299
    1IPC    D3B71324  16.230  25.208   5.031  0.1806 -0.4140  0.0686
    1IPC    C4B71325  16.174  25.542   4.888  0.0019  0.0259  0.1337
    1IPC    NC371326  10.949  21.493   7.106 -0.2949  0.0601 -0.1799
    1IPC    PO471327  10.800  21.303   6.690  0.0385  0.4268  0.0207
    1IPC    GL171328  10.886  21.605   6.354 -0.0816 -0.0690  0.0093
    1IPC    GL271329  10.800  21.598   6.066  0.0277 -0.0373 -0.1087
    1IPC    C1B71330  10.461  21.677   5.788  0.2307 -0.0568 -0.0187
    1IPC    D2B71331  10.511  21.777   5.334 -0.2757 -0.1112  0.1756
    1IPC    D3B71332  10.511  21.977   4.925  0.2057  0.0280  0.1883
    1IPC    C4B71333  10.611  21.647   4.623 -0.0472  0.2838 -0.0907
    1IPC    NC371334  21.561  14.149   7.139 -0.1568 -0.3240 -0.1723
    1IPC    PO471335  21.648  13.972   6.810  0.1807 -0.3901 -0.0446
    1IPC    GL171336  21.577  13.896   6.344  0.1776  0.2010 -0.1440
    1IPC    GL271337  21.439  14.069   6.141  0.1291 -0.2279 -0.1494
    1IPC    C1B71338  21.388  14.148   5.711  0.0110 -0.0842 -0.0120
    1IPC    D2B71339  21.107  14.314   5.543  0.0286 -0.1113 -0.1332
    1IPC    D3B71340  21.317  14.339   5.062  0.1060 -0.0530  0.0360
    1IPC    C4B71341  21.198  14.511   4.730  0.1460 -0.0307  0.1398
    1IPC    NC371342   5.534  18.189   6.149 -0.2901  0.0961  0.2317
    1IPC    PO471343   5.279  17.957   5.882  0.0283 -0.1062  0.3774
    1IPC    GL171344   5.298  18.191   5.394 -0.0120  0.3255  0.2007
    1IPC    GL271345   5.263  18.412   5.095  0.1122  0.1008  0.3777
    1IPC    C1B71346   5.219  18.533   4.678 -0.0136  0.0395  0.0557
    1IPC    D2B71347   5.482  18.883   4.659  0.3677  0.0387 -0.0012
    1IPC    D3B71348   5.171  19.073   4.429 -0.0475  0.2112 -0.0431
    1IPC    C4B71349   5.009  19.600   4.369  0.5714  0.0384 -0.1459
    1IPC    NC371350  28.794   9.647   7.035 -0.2456 -0.3773 -0.1074
    1IPC    PO471351  28.977   9.690   6.610  0.3425 -0.1497 -0.0806
    1IPC    GL171352  28.958   9.469   6.228 -0.1429 -0.2747 -0.1113
    1IPC    GL271353  28.910   9.440   5.929  0.3567  0.1550  0.3846
    1IPC    C1B71354  29.081   9.389   5.490 -0.6136 -0.0289  0.1599
    1IPC    D2B71355  29.034   9.375   5.047  0.4018 -0.3781 -0.0650
    1IPC    D3B71356  28.771   9.250   4.648  0.1898  0.1615 -0.3679
    1IPC    C4B71357  28.600   9.534   4.333  0.1151  0.1293 -0.4284
    1IPC    NC371358  28.267  20.137   6.713 -0.1799  0.0251 -0.1627
    1IPC    PO471359  28.657  19.961   6.834 -0.1789 -0.3461  0.0992
    1IPC    GL171360  28.715  20.006   6.314  0.1424  0.1339  0.2936
    1IPC    GL271361  28.570  20.022   6.023 -0.1938  0.2043 -0.0281
    1IPC    C1B71362  28.579  20.076   5.636  0.0729 -0.0912 -0.1133
    1IPC    D2B71363  28.801  20.462   5.272  0.0672  0.0563 -0.0386
    1IPC    D3B71364  28.545  20.748   5.505 -0.0080  0.1459 -0.1218
    1IPC    C4B71365  28.187  20.912   5.346 -0.1322 -0.2807 -0.0026
    1IPC    NC371366  10.528   9.583   7.572  0.3282  0.0794 -0.2303
    1IPC    PO471367  10.784   9.666   7.293  0.1969  0.1581 -0.3171
    1IPC    GL171368  10.609   9.691   6.890 -0.1686 -0.0149  0.1291
    1IPC    GL271369  10.363   9.496   6.846  0.1190  0.1786  0.0331
    1IPC    C1B71370  10.044   9.133   6.832  0.0550  0.0713 -0.5300
    1IPC    D2B71371   9.636   8.985   6.850 -0.0730  0.3802  0.1106
    1IPC    D3B71372   9.309   9.213   6.566  0.0446  0.1629  0.0926
    1IPC    C4B71373   9.321   9.532   6.238  0.0385 -0.1369  0.1989
    1IPC    NC371374   4.068  23.593   6.262  0.1238 -0.1201  0.1137
    1IPC    PO471375   3.931  23.258   5.955 -0.3568  0.2466 -0.2787
    1IPC    GL171376   4.048  23.444   5.546  0.3009  0.0025 -0.1123
    1IPC    GL271377   4.170  23.672   5.364 -0.0295  0.0518 -0.2992
    1IPC    C1B71378   4.179  23.934   5.073  0.0873 -0.0597 -0.1175
    1IPC    D2B71379   4.122  24.023   4.667  0.2680  0.3175 -0.1623
    1IPC    D3B71380   3.742  23.905   4.391 -0.0900 -0.3253  0.3158
    1IPC    C4B71381   3.744  23.952   3.970 -0.0815 -0.1619  0.1509
    1IPC    NC371382  21.975  25.805   6.813  0.0677 -0.0613 -0.0257
    1IPC    PO471383  21.983  26.135   6.969 -0.0587  0.1796  0.0761
    1IPC    GL171384  21.746  26.222   6.623 -0.1000 -0.2479 -0.3012
    1IPC    GL271385  21.827  26.346   6.334  0.0853  0.2666 -0.1507
    1IPC    C1B71386  22.086  26.538   5.996  0.2599  0.1792 -0.2847
    1IPC    D2B71387  22.118  26.541   5.551  0.0220 -0.0444  0.2772
    1IPC    D3B71388  21.799  26.674   5.194 -0.0131  0.0896  0.2477
    1IPC    C4B71389  21.843  26.387   4.865  0.0764 -0.2600 -0.0684
    1IPC    NC371390  17.183  19.968   7.431  0.1472 -0.0294 -0.0481
    1IPC    PO471391  17.345  20.217   7.283 -0.5217  0.1065 -0.1357
    1IPC    GL171392  17.347  20.430   6.934  0.0175 -0.0550 -0.2457
    1IPC    GL271393  17.216  20.466   6.547  0.0894 -0.3042  0.2057
    1IPC    C1B71394  17.236  20.458   6.090  0.0704 -0.0422 -0.1284
    1IPC    D2B71395  17.683  20.409   5.926 -0.5031  0.0922  0.1635
    1IPC    D3B71396  17.410  20.577   5.576 -0.0878 -0.3457 -0.5326
    1IPC    C4B71397  17.333  20.965   5.491  0.2334 -0.1273  0.5290
    1IPC    NC371398  24.871   5.569   6.835  0.0765 -0.2151 -0.1769
    1IPC    PO471399  25.111   5.266   6.864 -0.0732 -0.1972 -0.3082
    1IPC    GL171400  24.843   4.916   6.600 -0.0951 -0.0939  0.1978
    1IPC    GL271401  24.543   4.862   6.487 -0.1673  0.1994  0.1209
    1IPC    C1B71402  24.351   4.709   6.073  0.0641  0.0690 -0.1149
    1IPC    D2B71403  24.110   4.361   5.932 -0.2712 -0.0125 -0.1161
    1IPC    D3B71404  24.278   4.547   5.547  0.2239 -0.0436 -0.5665
    1IPC    C4B71405  24.579   4.881   5.678  0.2673 -0.1545  0.2362
    1IPC    NC371406   4.015  17.365   6.000 -0.2462 -0.1754 -0.1150
    1IPC    PO471407   3.617  17.096   6.126  0.2139  0.0280 -0.0246
    1IPC    GL171408   3.926  16.909   5.838 -0.2086 -0.0837  0.3140
    1IPC    GL271409   3.725  16.836   5.514 -0.0728 -0.1085  0.1846
    1IPC    C1B71410   3.529  16.722   5.098 -0.0216  0.1415  0.0193
    1IPC    D2B71411   3.463  16.611   4.654  0.0000  0.0326  0.1559
    1IPC    D3B71412   3.182  16.977   4.466 -0.0866  0.1454  0.0499
    1IPC    C4B71413   2.889  16.785   4.454  0.0592  0.2856  0.0285
    1IPC    NC371414  27.461  13.697   6.758 -0.0550  0.0530 -0.2069
    1IPC    PO471415  27.531  13.936   6.400 -0.1133  0.0232  0.2574
    1IPC    GL171416  27.397  13.769   5.908 -0.0975 -0.3707 -0.0187
    1IPC    GL271417  27.395  13.879   5.628 -0.3626  0.1723 -0.2574
    1IPC    C1B71418  27.348  13.873   5.205 -0.0984 -0.1430 -0.1215
    1IPC    D2B71419  27.428  14.206   4.902  0.1295 -0.1675  0.0961
    1IPC    D3B71420  26.975  14.136   4.792  0.2724  0.3129  0.1168
    1IPC    C4B71421  26.910  13.949   4.287  0.0748  0.2390  0.1527
    1IPC    NC371422  18.436   4.974   2.404  0.0108 -0.0203 -0.0654
    1IPC    PO471423  18.047   5.163   2.671 -0.1972  0.0656  0.0633
    1IPC    GL171424  17.619   5.268   2.863 -0.0279 -0.2865 -0.1542
    1IPC    GL271425  17.588   5.210   3.160  0.1067  0.1170  0.0859
    1IPC    C1B71426  17.469   5.035   3.555 -0.3736 -0.0401  0.1978
    1IPC    D2B71427  17.462   4.677   3.935 -0.1710  0.2536 -0.1038
    1IPC    D3B71428  17.694   4.886   4.332  0.2071 -0.0842  0.0377
    1IPC    C4B71429  18.108   4.644   4.397 -0.0219 -0.2797 -0.0219
    1IPC    NC371430  28.348   0.807   2.459 -0.3013  0.1776  0.2035
    1IPC    PO471431  28.707   0.628   2.601  0.2007 -0.1299 -0.2893
    1IPC    GL171432  29.023   0.570   2.982 -0.1112 -0.0991 -0.0955
    1IPC    GL271433  28.988   0.503   3.215  0.1160  0.0052  0.0122
    1IPC    C1B71434  28.864   0.548   3.542 -0.3270 -0.1575 -0.0239
    1IPC    D2B71435  28.688   0.524   3.920 -0.0571  0.2843  0.2903
    1IPC    D3B71436  28.843   0.107   4.075  0.2245  0.2975 -0.1277
    1IPC    C4B71437  28.554  -0.257   4.138 -0.0070 -0.2294  0.0041
    1IPC    NC371438  26.712  14.779   2.386  0.0403 -0.0072 -0.1011
    1IPC    PO471439  26.306  15.014   2.270  0.1553  0.1215 -0.2750
    1IPC    GL171440  26.039  15.099   2.652  0.0089  0.0273 -0.1089
    1IPC    GL271441  25.896  15.179   2.950 -0.0707 -0.1354 -0.1187
    1IPC    C1B71442  25.702  15.135   3.396 -0.1847  0.1773 -0.1793
    1IPC    D2B71443  25.561  15.231   3.828 -0.2637 -0.1678 -0.5011
    1IPC    D3B71444  25.286  14.898   3.923 -0.0824  0.0208 -0.2527
    1IPC    C4B71445  25.279  14.714   4.420  0.1377  0.1878 -0.0603
    1IPC    NC371446   7.237  23.312   2.096 -0.2255 -0.1207  0.1448
    1IPC    PO471447   7.695  23.257   2.142  0.1320 -0.0285 -0.0923
    1IPC    GL171448   7.665  22.994   2.445 -0.0965  0.0172  0.0236
    1IPC    GL271449   7.683  23.049   2.787 -0.0300  0.4452  0.0306
    1IPC    C1B71450   7.643  22.989   3.258 -0.3187  0.0513  0.2186
    1IPC    D2B71451   7.581  22.866   3.714 -0.0199  0.2408 -0.2944
    1IPC    D3B71452   7.424  22.466   3.854  0.0227 -0.5774 -0.0457
    1IPC    C4B71453   7.270  22.110   3.646  0.3092 -0.1502 -0.5104
    1IPC    NC371454   9.591  27.481   2.951 -0.1250  0.0931 -0.1414
    1IPC    PO471455   9.164  27.227   2.782  0.1091 -0.0134  0.0342
    1IPC    GL171456   9.241  27.134   3.183 -0.1345  0.5567 -0.1539
    1IPC    GL271457   9.382  26.964   3.307  0.0154 -0.0102 -0.1495
    1IPC    C1B71458   9.380  26.842   3.709 -0.2655  0.0784 -0.2508
    1IPC    D2B71459   9.396  26.649   4.049 -0.2100  0.0558 -0.1321
    1IPC    D3B71460   9.814  26.360   3.953 -0.0539 -0.0228  0.2960
    1IPC    C4B71461   9.805  25.837   3.764 -0.2676  0.3764 -0.1381
    1IPC    NC371462  25.579  21.103   2.698 -0.0354  0.1034  0.1234
    1IPC    PO471463  25.479  21.336   3.117 -0.3395 -0.0748  0.5689
    1IPC    GL171464  25.236  21.167   3.409  0.2334 -0.0647 -0.0094
    1IPC    GL271465  25.155  21.219   3.706  0.1457 -0.3994 -0.0106
    1IPC    C1B71466  25.087  21.299   4.078  0.1557 -0.0073 -0.0321
    1IPC    D2B71467  24.980  21.019   4.470  0.0473  0.2268  0.0171
    1IPC    D3B71468  24.595  20.949   4.684 -0.1729  0.1581  0.0583
    1IPC    C4B71469  24.742  20.828   5.167  0.2534  0.2224  0.1571
    1IPC    NC371470  24.586  23.200   2.517  0.2288  0.0135 -0.0592
    1IPC    PO471471  25.045  23.301   2.607  0.3856 -0.1220 -0.1293
    1IPC    GL171472  24.834  23.376   2.933 -0.1962  0.3002  0.1414
    1IPC    GL271473  24.814  23.440   3.242 -0.0698  0.0953  0.0853
    1IPC    C1B71474  24.876  23.603   3.668  0.0139 -0.2935 -0.0572
    1IPC    D2B71475  24.950  23.671   4.166 -0.1380 -0.1015  0.1622
    1IPC    D3B71476  24.680  23.388   4.459 -0.3426 -0.1499  0.1387
    1IPC    C4B71477  24.801  23.370   4.961  0.3711  0.1114  0.1166
    1IPC    NC371478  23.603   5.200   2.343 -0.1122 -0.1598 -0.1947
    1IPC    PO471479  23.237   5.274   2.555 -0.0136 -0.0141  0.0646
    1IPC    GL171480  23.063   5.064   2.882 -0.0980  0.0934 -0.4504
    1IPC    GL271481  23.230   4.978   3.174  0.0731 -0.0485 -0.0924
    1IPC    C1B71482  23.546   4.977   3.505 -0.1841 -0.1081 -0.3346
    1IPC    D2B71483  23.980   4.837   3.696  0.1228  0.0019 -0.1785
    1IPC    D3B71484  24.209   4.710   4.044 -0.2426  0.2533  0.3539
    1IPC    C4B71485  24.546   4.891   4.223 -0.0432 -0.1141 -0.1120
    1IPC    NC371486  10.044  26.241   2.545 -0.0748  0.0013  0.0509
    1IPC    PO471487  10.494  26.369   2.341 -0.1165  0.3434  0.0635
    1IPC    GL171488  10.547  26.145   2.710  0.2007 -0.1645  0.1882
    1IPC    GL271489  10.822  25.956   2.816 -0.1118  0.1064 -0.1886
    1IPC    C1B71490  10.942  25.787   3.225 -0.1457 -0.2834 -0.1368
    1IPC    D2B71491  11.121  25.835   3.537  0.0402  0.0442 -0.3046
    1IPC    D3B71492  11.515  25.639   3.649  0.2029 -0.3020  0.1418
    1IPC    C4B71493  11.740  25.968   3.833  0.1332 -0.0689  0.0596
    1IPC    NC371494  11.941   7.700   2.611  0.2696 -0.0210  0.0878
    1IPC    PO471495  11.675   7.643   2.953  0.1069 -0.0671 -0.3297
    1IPC    GL171496  11.838   7.468   3.353  0.2793  0.1032 -0.2238
    1IPC    GL271497  11.656   7.379   3.613  0.0383  0.0967  0.3389
    1IPC    C1B71498  11.641   7.672   3.992  0.1048 -0.1456 -0.1225
    1IPC    D2B71499  11.652   7.647   4.381 -0.1754  0.0859 -0.0040
    1IPC    D3B71500  11.580   7.319   4.347 -0.0841 -0.0655 -0.0900
    1IPC    C4B71501  11.683   7.136   4.036 -0.1489  0.0337  0.0720
    1IPC    NC371502  16.220  29.497   2.922 -0.1426 -0.1568  0.3351
    1IPC    PO471503  16.303  29.810   3.109  0.2186  0.4595 -0.1336
    1IPC    GL171504  16.113  29.862   3.572  0.2095  0.3384 -0.2456
    1IPC    GL271505  15.888  29.845   3.872 -0.1784 -0.1937 -0.2230
    1IPC    C1B71506  15.662  30.031   4.249  0.0885 -0.2012  0.1462
    1IPC    D2B71507  15.423  30.166   4.668  0.1872  0.0982  0.0738
    1IPC    D3B71508  15.433  30.266   5.097  0.0753 -0.1712  0.0506
    1IPC    C4B71509  15.844  30.228   5.274 -0.3430 -0.0335  0.0877
    1IPC    NC371510   0.670  20.190   1.662 -0.0908 -0.0890 -0.0848
    1IPC    PO471511   0.365  20.169   2.038  0.2479  0.1885 -0.1781
    1IPC    GL171512   0.237  20.311   2.589  0.2719 -0.2856 -0.3433
    1IPC    GL271513   0.382  20.352   2.828 -0.0849  0.1488  0.1175
    1IPC    C1B71514   0.510  20.412   3.261  0.3325 -0.1742 -0.2179
    1IPC    D2B71515   0.597  20.577   3.497  0.0369  0.1206  0.0864
    1IPC    D3B71516   0.401  20.480   3.961 -0.1158 -0.0329 -0.0537
    1IPC    C4B71517   0.642  20.573   4.285 -0.0192  0.1200 -0.3479
    1IPC    NC371518   7.412  23.040   1.098  0.2492  0.2644 -0.0849
    1IPC    PO471519   7.646  22.876   1.480  0.0393  0.0695 -0.0567
    1IPC    GL171520   7.364  22.868   1.849  0.1140  0.0105  0.1683
    1IPC    GL271521   7.248  22.637   2.091  0.3346  0.0375 -0.0316
    1IPC    C1B71522   7.279  22.659   2.504 -0.0974 -0.2797  0.1100
    1IPC    D2B71523   7.226  22.784   2.884 -0.1372  0.1680  0.1505
    1IPC    D3B71524   7.252  22.618   3.311  0.0089  0.2538  0.5745
    1IPC    C4B71525   7.703  22.498   3.427 -0.2032  0.0765  0.1213
    1IPC    NC371526   1.297  29.268   2.762 -0.2343  0.1730  0.1801
    1IPC    PO471527   1.176  29.577   2.936 -0.0299  0.0332 -0.2056
    1IPC    GL171528   1.231  29.360   3.348 -0.1077  0.0176 -0.1784
    1IPC    GL271529   1.371  29.147   3.610  0.3298 -0.1370  0.0318
    1IPC    C1B71530   1.638  29.129   3.974 -0.1276  0.1072 -0.1690
    1IPC    D2B71531   1.925  29.005   4.281 -0.1408 -0.1264 -0.1106
    1IPC    D3B71532   2.120  29.168   3.891 -0.1756  0.0385  0.1411
    1IPC    C4B71533   2.446  28.812   3.912 -0.0735  0.0849 -0.1142
    1IPC    NC371534  17.933  24.760   3.208  0.1012 -0.2853  0.1553
    1IPC    PO471535  18.120  24.395   3.330 -0.2297  0.0330 -0.0844
    1IPC    GL171536  18.294  24.372   3.705  0.3090 -0.0397 -0.1146
    1IPC    GL271537  18.363  24.511   4.004 -0.1371 -0.1179  0.0097
    1IPC    C1B71538  18.327  24.406   4.407  0.0538  0.1397 -0.2114
    1IPC    D2B71539  18.486  24.042   4.655 -0.1617  0.2474  0.1978
    1IPC    D3B71540  18.859  24.131   4.905 -0.0236  0.0449  0.0201
    1IPC    C4B71541  18.828  24.007   5.329  0.2512  0.2446  0.0520
    1IPC    NC371542  18.671   7.579   1.413 -0.2299  0.2396 -0.0794
    1IPC    PO471543  18.508   7.448   1.695 -0.4124 -0.0410  0.4324
    1IPC    GL171544  18.847   7.352   1.979 -0.0981  0.1310 -0.0455
    1IPC    GL271545  19.046   7.247   2.199 -0.2089 -0.4124  0.0864
    1IPC    C1B71546  19.283   7.345   2.645  0.1511  0.1079  0.0850
    1IPC    D2B71547  19.453   7.336   3.099  0.1211  0.2835 -0.2483
    1IPC    D3B71548  19.184   7.053   3.155 -0.3471  0.1012  0.0774
    1IPC    C4B71549  18.880   7.142   3.427  0.1445  0.1224 -0.1282
    1IPC    NC371550  10.121   0.009   2.952 -0.1400 -0.0058  0.0188
    1IPC    PO471551  10.438   0.196   3.037 -0.2596  0.0186 -0.3579
    1IPC    GL171552  10.111   0.147   3.487 -0.1718 -0.0311 -0.1190
    1IPC    GL271553  10.102   0.114   3.779  0.0692  0.3503 -0.3927
    1IPC    C1B71554   9.743   0.078   4.057 -0.3757 -0.3356  0.1104
    1IPC    D2B71555   9.466   0.022   4.414 -0.3724  0.0743  0.1350
    1IPC    D3B71556   9.442   0.463   4.597 -0.1436 -0.0267  0.2583
    1IPC    C4B71557   9.631   0.480   4.985  0.0582 -0.1356 -0.1322
    1IPC    NC371558  29.039  15.739   2.488  0.0658 -0.0970  0.2341
    1IPC    PO471559  29.267  15.346   2.607 -0.0944  0.0946  0.1193
    1IPC    GL171560  29.503  15.265   2.975  0.0573  0.1895 -0.1030
    1IPC    GL271561  29.460  15.100   3.314  0.1595 -0.1506  0.0149
    1IPC    C1B71562  29.330  15.181   3.749  0.1038 -0.0633  0.0861
    1IPC    D2B71563  29.039  15.298   3.966  0.0860 -0.1107 -0.1064
    1IPC    D3B71564  29.409  15.554   4.116 -0.0246  0.2313  0.1720
    1IPC    C4B71565  29.475  15.874   4.313 -0.1231 -0.0598  0.1186
    1IPC    NC371566   5.877   4.551   3.574 -0.0157 -0.1631 -0.2308
    1IPC    PO471567   5.720   4.166   3.421 -0.2091 -0.5036  0.2614
    1IPC    GL171568   5.777   4.134   3.848  0.2215 -0.2613 -0.0548
    1IPC    GL271569   5.691   4.059   4.048 -0.3153  0.1222  0.1125
    1IPC    C1B71570   5.691   4.021   4.429  0.0091 -0.0770  0.2400
    1IPC    D2B71571   5.747   3.817   4.898  0.0815  0.0190 -0.0569
    1IPC    D3B71572   6.051   4.168   4.841 -0.0194 -0.2846  0.1647
    1IPC    C4B71573   6.105   4.430   5.195  0.1645 -0.2989  0.2352
    1IPC    NC371574  25.991  19.019   1.795 -0.3654 -0.0582  0.4319
    1IPC    PO471575  25.837  18.541   1.945  0.1414 -0.2830 -0.1742
    1IPC    GL171576  25.797  18.516   2.393 -0.0432 -0.1056 -0.0669
    1IPC    GL271577  25.807  18.579   2.731  0.0552 -0.0336 -0.0780
    1IPC    C1B71578  25.605  18.659   3.118 -0.1012 -0.1280 -0.0608
    1IPC    D2B71579  25.301  18.640   3.446 -0.4460  0.2862  0.0412
    1IPC    D3B71580  25.076  18.270   3.488  0.3770  0.0308 -0.1003
    1IPC    C4B71581  25.011  18.231   3.884 -0.3760 -0.0305  0.2088
    1IPC    NC371582  12.482   3.307   3.671 -0.0599 -0.0933 -0.1510
    1IPC    PO471583  12.054   3.485   3.562 -0.1922 -0.0400 -0.0114
    1IPC    GL171584  12.296   3.769   3.770  0.1957 -0.1096  0.1505
    1IPC    GL271585  12.361   3.844   4.058  0.0846 -0.1592  0.1506
    1IPC    C1B71586  12.663   3.689   4.443 -0.0796  0.1581 -0.0350
    1IPC    D2B71587  12.665   3.724   4.876 -0.0898 -0.1256 -0.0110
    1IPC    D3B71588  12.411   3.532   5.167  0.2993  0.3782  0.1252
    1IPC    C4B71589  12.218   3.491   5.680 -0.0937 -0.2730  0.2236
    1IPC    NC371590  11.300  29.100   3.174 -0.1288  0.0033 -0.1474
    1IPC    PO471591  11.480  28.728   3.448  0.0650 -0.0640 -0.4969
    1IPC    GL171592  11.399  28.527   3.821 -0.1606  0.0068  0.0884
    1IPC    GL271593  11.252  28.595   4.092  0.0320 -0.5342 -0.0483
    1IPC    C1B71594  11.050  28.481   4.500 -0.2056  0.2070 -0.1742
    1IPC    D2B71595  10.807  28.376   4.841  0.0794  0.3649 -0.0335
    1IPC    D3B71596  10.805  28.784   5.174 -0.1461 -0.0721  0.2684
    1IPC    C4B71597  11.044  29.073   5.173  0.3261  0.0665 -0.0758
    1IPC    NC371598   3.178  11.116   2.535 -0.2355 -0.0493 -0.0443
    1IPC    PO471599   3.440  10.752   2.590  0.3476  0.0019  0.0785
    1IPC    GL171600   3.522  10.835   3.036  0.0631  0.2790  0.0902
    1IPC    GL271601   3.672  10.912   3.224 -0.2084  0.0800  0.1162
    1IPC    C1B71602   3.749  10.910   3.651 -0.2152  0.0041  0.0457
    1IPC    D2B71603   3.461  11.031   3.957  0.2197 -0.3438 -0.1085
    1IPC    D3B71604   3.486  11.180   4.395 -0.1452 -0.0616 -0.2883
    1IPC    C4B71605   3.530  11.536   4.723  0.0087 -0.1477  0.0219
    1IPC    NC371606  29.634  22.194   2.288 -0.0463 -0.0017  0.3080
    1IPC    PO471607  29.668  22.539   2.477 -0.1678 -0.1107 -0.0846
    1IPC    GL171608  29.938  22.386   2.686 -0.0663  0.1007  0.0999
    1IPC    GL271609  30.150  22.194   2.828 -0.1017  0.1117 -0.0116
    1IPC    C1B71610  30.271  22.114   3.234  0.0194  0.0552 -0.3185
    1IPC    D2B71611  30.239  22.046   3.812 -0.0745 -0.0462 -0.1351
    1IPC    D3B71612  30.661  21.946   3.700 -0.0385  0.0070 -0.0715
    1IPC    C4B71613  31.100  21.838   3.883 -0.0250  0.1610  0.1776
    1IPC    NC371614  21.575   0.384   2.613 -0.1587  0.0101  0.0180
    1IPC    PO471615  21.833   0.764   2.787  0.2153 -0.2843 -0.1725
    1IPC    GL171616  21.767   0.760   3.145  0.0089  0.5816 -0.1620
    1IPC    GL271617  21.721   0.652   3.452  0.4290  0.1989  0.0416
    1IPC    C1B71618  21.637   0.537   3.891  0.1695  0.2254  0.1941
    1IPC    D2B71619  21.770   0.570   4.315 -0.2350  0.2783  0.0794
    1IPC    D3B71620  21.659   0.405   4.757  0.1037  0.2196 -0.1587
    1IPC    C4B71621  21.432   0.740   5.089 -0.0077  0.0235  0.1326
    1IPC    NC371622  27.486  27.168   2.822  0.0128  0.1852 -0.0969
    1IPC    PO471623  27.022  26.947   2.633 -0.2406 -0.1745  0.1080
    1IPC    GL171624  26.967  26.682   3.013 -0.0274 -0.2143  0.2315
    1IPC    GL271625  26.794  26.409   3.314 -0.1098 -0.1667 -0.0867
    1IPC    C1B71626  26.800  26.376   3.821  0.1946  0.0935 -0.0577
    1IPC    D2B71627  26.965  26.240   4.169 -0.2340 -0.0010  0.0431
    1IPC    D3B71628  26.625  26.167   4.544 -0.0911  0.0599  0.0086
    1IPC    C4B71629  26.577  25.745   4.631 -0.0416  0.1229 -0.1211
    1IPC    NC371630  13.810   5.751   3.168  0.1348  0.0297  0.1234
    1IPC    PO471631  14.161   6.031   2.926  0.1361  0.1387  0.0446
    1IPC    GL171632  14.276   5.972   3.383  0.1963 -0.2010 -0.1614
    1IPC    GL271633  14.464   5.896   3.640  0.0587 -0.0135  0.2438
    1IPC    C1B71634  14.496   5.836   4.107  0.3445  0.2147 -0.1536
    1IPC    D2B71635  14.845   5.667   4.354 -0.0182  0.0740  0.2791
    1IPC    D3B71636  14.569   5.756   4.603 -0.2143 -0.0515 -0.2394
    1IPC    C4B71637  14.433   6.085   4.807  0.0365  0.1646  0.2240
    1IPC    NC371638  20.512   9.145   2.133 -0.3349 -0.1000 -0.1179
    1IPC    PO471639  20.171   9.303   2.274  0.1351 -0.2288 -0.3811
    1IPC    GL171640  20.076   9.363   2.685 -0.0211 -0.1797  0.0686
    1IPC    GL271641  20.143   9.226   2.969  0.1256  0.0932 -0.0654
    1IPC    C1B71642  20.240   9.408   3.337  0.0252 -0.1585 -0.3752
    1IPC    D2B71643  20.311   9.405   3.759  0.0968  0.0894 -0.2463
    1IPC    D3B71644  20.120   9.746   3.735 -0.3100 -0.0767  0.3322
    1IPC    C4B71645  19.758   9.895   3.637 -0.0155  0.2378 -0.0414
    1IPC    NC371646   5.965   5.279   3.062 -0.0760 -0.0415  0.1231
    1IPC    PO471647   6.336   5.070   3.136  0.1929 -0.1732 -0.1458
    1IPC    GL171648   6.108   5.098   3.513 -0.2973  0.2586  0.0406
    1IPC    GL271649   6.078   5.005   3.757  0.1864  0.0685 -0.0045
    1IPC    C1B71650   5.891   4.880   4.128  0.1402  0.0069  0.2635
    1IPC    D2B71651   5.583   5.141   4.424  0.0750 -0.2196  0.0374
    1IPC    D3B71652   5.566   5.179   4.854  0.2990  0.2462  0.1867
    1IPC    C4B71653   5.217   5.130   5.100 -0.2253 -0.0215 -0.0549
    1IPC    NC371654   4.182  17.615   1.285 -0.1964  0.0481  0.1276
    1IPC    PO471655   4.094  17.777   1.629  0.1490 -0.0885 -0.1037
    1IPC    GL171656   4.369  17.597   1.901 -0.1059 -0.0503  0.0869
    1IPC    GL271657   4.428  17.603   2.190 -0.0982 -0.0923 -0.2645
    1IPC    C1B71658   4.275  17.834   2.569  0.2578 -0.0248  0.2269
    1IPC    D2B71659   4.116  17.968   2.967 -0.0279  0.2061  0.2101
    1IPC    D3B71660   4.194  17.902   3.320  0.0477 -0.0257  0.1584
    1IPC    C4B71661   3.895  17.795   3.707 -0.0294  0.0355 -0.0704
    1IPC    NC371662  13.167  22.870   1.857 -0.0255 -0.0488 -0.5407
    1IPC    PO471663  13.264  23.153   1.924  0.0916  0.0751  0.1384
    1IPC    GL171664  13.206  23.168   2.372  0.1909 -0.0440 -0.1964
    1IPC    GL271665  12.942  23.294   2.615 -0.0862  0.0102  0.0754
    1IPC    C1B71666  12.815  23.148   3.021  0.1062 -0.0219  0.2219
    1IPC    D2B71667  12.517  22.854   3.164 -0.3161 -0.2751 -0.2089
    1IPC    D3B71668  12.711  22.622   3.492 -0.1449 -0.0176 -0.2332
    1IPC    C4B71669  12.872  22.504   3.952 -0.1083  0.0767 -0.1229
    1IPC    NC371670  16.547   9.490   1.943  0.0145  0.1440 -0.1190
    1IPC    PO471671  16.384   9.011   1.949  0.1139 -0.1855  0.2213
    1IPC    GL171672  16.508   8.864   2.470 -0.1634  0.2961 -0.1191
    1IPC    GL271673  16.570   8.776   2.784  0.0564  0.0488 -0.2455
    1IPC    C1B71674  16.809   8.642   3.120 -0.1169 -0.0345  0.1425
    1IPC    D2B71675  17.035   8.797   3.516 -0.0057 -0.0493 -0.0157
    1IPC    D3B71676  16.881   9.106   3.865 -0.3117  0.0046  0.1352
    1IPC    C4B71677  16.456   9.233   3.999 -0.1219 -0.0098  0.2441
    1IPC    NC371678  26.613  12.575   2.127 -0.0783  0.0595  0.3108
    1IPC    PO471679  26.832  12.892   2.372 -0.0093 -0.0211 -0.1731
    1IPC    GL171680  26.821  12.958   2.802 -0.3775 -0.0335 -0.1887
    1IPC    GL271681  26.821  13.095   3.108  0.3051  0.1988 -0.0983
    1IPC    C1B71682  26.777  12.834   3.519 -0.1430 -0.1131  0.1481
    1IPC    D2B71683  26.771  12.697   3.984 -0.0644 -0.2141  0.1106
    1IPC    D3B71684  26.395  12.809   3.993 -0.2370 -0.0417  0.0398
    1IPC    C4B71685  26.221  13.159   4.173 -0.2267  0.4874 -0.0989
    1IPC    NC371686  15.690  29.381   3.592 -0.3132  0.1174  0.0361
    1IPC    PO471687  15.674  29.205   3.161 -0.2349  0.0045 -0.5140
    1IPC    GL171688  15.990  28.919   3.466  0.1114 -0.0048  0.4866
    1IPC    GL271689  16.348  28.938   3.656 -0.0996  0.1240 -0.0655
    1IPC    C1B71690  16.570  29.135   4.116 -0.0252  0.3713 -0.0077
    1IPC    D2B71691  16.909  29.158   4.318  0.1094  0.1351 -0.0232
    1IPC    D3B71692  17.199  29.419   4.211  0.0549  0.2414 -0.0741
    1IPC    C4B71693  17.502  29.791   4.472  0.1775  0.1257  0.1811
    1IPC    NC371694  20.680  27.049   3.153 -0.1740 -0.1606  0.2678
    1IPC    PO471695  20.215  27.202   3.133 -0.2738 -0.1991  0.4396
    1IPC    GL171696  20.157  27.241   3.491 -0.2742  0.2746 -0.0197
    1IPC    GL271697  20.379  27.429   3.699 -0.1239 -0.0714 -0.1744
    1IPC    C1B71698  20.664  27.212   3.959  0.0519 -0.0015  0.2839
    1IPC    D2B71699  20.800  26.943   4.181  0.0484 -0.1964 -0.0224
    1IPC    D3B71700  20.455  26.642   4.263 -0.1621 -0.2065 -0.0124
    1IPC    C4B71701  20.662  26.387   4.581 -0.0859  0.0178 -0.3201
    1IPC    NC371702   0.690   8.151   2.380 -0.1267 -0.1766 -0.2039
    1IPC    PO471703   0.768   7.914   2.782  0.0064 -0.0110  0.4712
    1IPC    GL171704   0.682   7.957   3.230  0.1014  0.0817 -0.0089
    1IPC    GL271705   0.746   8.058   3.585  0.1913  0.1686 -0.2211
    1IPC    C1B71706   1.045   7.973   3.905  0.1719 -0.1154 -0.0733
    1IPC    D2B71707   1.006   7.602   4.174  0.0372  0.0292 -0.1703
    1IPC    D3B71708   1.304   7.513   4.529  0.1402 -0.0434 -0.0233
    1IPC    C4B71709   1.418   7.116   4.535  0.2519 -0.2002  0.1509
    1IPC    NC371710   2.344   7.366   2.894  0.0113  0.2792 -0.0294
    1IPC    PO471711   2.089   7.687   2.847 -0.1230  0.1242 -0.3144
    1IPC    GL171712   2.243   7.776   3.100 -0.1408 -0.1632  0.2206
    1IPC    GL271713   2.280   7.888   3.532  0.0046 -0.0008  0.1526
    1IPC    C1B71714   2.092   7.781   3.961 -0.0598  0.1472  0.1773
    1IPC    D2B71715   2.196   7.903   4.356 -0.0945 -0.2495  0.1816
    1IPC    D3B71716   1.883   8.152   4.269 -0.0810  0.0294  0.1818
    1IPC    C4B71717   2.121   8.497   4.300  0.1586  0.3325 -0.2899
    1IPC    NC371718  14.011   5.048   2.760 -0.2713 -0.3703 -0.0032
    1IPC    PO471719  13.743   5.327   2.929 -0.0544  0.3608  0.0060
    1IPC    GL171720  13.897   5.313   3.418 -0.0532  0.2757  0.2978
    1IPC    GL271721  13.724   5.226   3.679  0.2133 -0.1232  0.0718
    1IPC    C1B71722  13.784   5.164   4.049  0.5309 -0.1249 -0.1516
    1IPC    D2B71723  14.053   5.558   4.190  0.1210  0.0835 -0.1065
    1IPC    D3B71724  14.113   5.925   4.455  0.0654 -0.0901 -0.1493
    1IPC    C4B71725  13.974   5.875   4.827 -0.0236  0.3708  0.0662
    1IPC    NC371726   0.316  18.077   2.118  0.3873  0.1310 -0.2173
    1IPC    PO471727   0.763  18.067   2.125  0.0433  0.1974 -0.1348
    1IPC    GL171728   1.039  17.820   2.386  0.0639  0.2289  0.1093
    1IPC    GL271729   1.046  17.672   2.641  0.3184 -0.0253  0.2038
    1IPC    C1B71730   1.140  17.520   3.036 -0.1051  0.1711  0.3754
    1IPC    D2B71731   0.962  17.418   3.431 -0.1202 -0.1391  0.0154
    1IPC    D3B71732   0.928  17.668   3.925 -0.1855  0.1269  0.0434
    1IPC    C4B71733   0.845  17.691   4.411  0.0264  0.0667 -0.0963
    1IPC    NC371734  18.060  26.651   3.246  0.1509  0.1106 -0.1079
    1IPC    PO471735  18.223  27.053   3.439  0.1167 -0.3048 -0.2021
    1IPC    GL171736  18.400  27.011   3.843 -0.0091  0.1741 -0.1466
    1IPC    GL271737  18.591  26.997   4.158 -0.2212  0.0575  0.0007
    1IPC    C1B71738  18.491  26.903   4.652 -0.0682 -0.3841 -0.0179
    1IPC    D2B71739  18.536  26.933   4.994 -0.0891  0.1184 -0.1860
    1IPC    D3B71740  18.431  27.322   4.981 -0.0278  0.2856 -0.0191
    1IPC    C4B71741  18.161  27.740   5.103  0.0273 -0.0154  0.0758
    1IPC    NC371742   3.889  10.606   2.459  0.3575  0.2320 -0.1576
    1IPC    PO471743   3.931  10.948   2.732  0.1387 -0.0789  0.0654
    1IPC    GL171744   4.152  11.147   2.993  0.0553  0.0515  0.1421
    1IPC    GL271745   4.169  11.242   3.297  0.0975 -0.0818 -0.2151
    1IPC    C1B71746   4.262  11.150   3.733 -0.2878 -0.2129 -0.0048
    1IPC    D2B71747   4.493  11.031   4.150 -0.4939  0.1555 -0.0569
    1IPC    D3B71748   4.504  11.273   4.446 -0.2234  0.2383  0.0661
    1IPC    C4B71749   4.259  11.624   4.472 -0.0705 -0.3749 -0.4569
    1IPC    NC371750  21.234  21.706   3.550  0.1767 -0.1726  0.1528
    1IPC    PO471751  21.192  22.091   3.172 -0.0505 -0.2643  0.0010
    1IPC    GL171752  20.970  22.222   3.552  0.1245  0.0663 -0.1562
    1IPC    GL271753  20.910  22.415   3.839 -0.1233 -0.1675 -0.0506
    1IPC    C1B71754  21.017  22.270   4.327  0.4527  0.3200 -0.3644
    1IPC    D2B71755  21.122  22.212   4.794 -0.1423 -0.1168  0.0571
    1IPC    D3B71756  20.875  21.930   4.924  0.1368 -0.4771 -0.2312
    1IPC    C4B71757  20.688  21.539   4.743  0.0893 -0.0945 -0.2209
    1IPC    NC371758   0.331   4.613   2.104 -0.1324 -0.0736  0.0472
    1IPC    PO471759   0.382   4.800   2.567  0.0415 -0.0088 -0.2204
    1IPC    GL171760   0.513   4.702   2.880  0.1911 -0.0218  0.0959
    1IPC    GL271761   0.559   4.526   3.213  0.3965 -0.3509  0.1023
    1IPC    C1B71762   0.712   4.502   3.668  0.0351  0.0621  0.1553
    1IPC    D2B71763   1.026   4.456   3.999 -0.3754  0.0595 -0.0130
    1IPC    D3B71764   1.214   4.748   4.277 -0.0809 -0.2026 -0.1308
    1IPC    C4B71765   1.002   5.029   4.627 -0.2677 -0.0441  0.0599
    1IPC    NC371766  26.686  16.036   1.812  0.0722  0.0311  0.1715
    1IPC    PO471767  26.719  15.576   2.004  0.0482  0.2069 -0.1394
    1IPC    GL171768  26.672  15.341   2.303 -0.0660  0.0153 -0.0838
    1IPC    GL271769  26.574  15.276   2.619  0.0475 -0.0772  0.0951
    1IPC    C1B71770  26.417  15.322   2.965 -0.2116  0.1224  0.0941
    1IPC    D2B71771  26.204  15.227   3.340  0.0109 -0.2722 -0.0402
    1IPC    D3B71772  26.323  15.161   3.712 -0.0498 -0.0322  0.3054
    1IPC    C4B71773  25.995  14.965   3.876  0.1369  0.0116 -0.0420
    1IPC    NC371774  26.313  23.874   2.548  0.1066 -0.0048 -0.0511
    1IPC    PO471775  26.556  23.895   2.931  0.0508  0.0982  0.0650
    1IPC    GL171776  26.607  23.909   3.408  0.3844  0.2148 -0.2174
    1IPC    GL271777  26.519  24.120   3.696 -0.1082  0.1631  0.1660
    1IPC    C1B71778  26.620  24.211   4.175  0.1192 -0.1054 -0.1042
    1IPC    D2B71779  27.029  24.336   4.431  0.1975  0.2278 -0.0540
    1IPC    D3B71780  26.721  24.662   4.631 -0.2061 -0.0807  0.2131
    1IPC    C4B71781  26.862  24.941   4.882  0.0745  0.2521  0.2802
    1IPC    NC371782  24.231   6.212   2.847  0.1147  0.2115 -0.0653
    1IPC    PO471783  24.070   5.804   2.702  0.1258 -0.0455  0.0211
    1IPC    GL171784  23.823   5.921   3.030  0.0145 -0.2499 -0.0411
    1IPC    GL271785  23.830   5.893   3.426  0.0922 -0.3065  0.1310
    1IPC    C1B71786  23.831   6.186   3.793 -0.0946 -0.3369  0.1443
    1IPC    D2B71787  23.675   6.184   4.149  0.0613 -0.1491 -0.0904
    1IPC    D3B71788  23.403   5.922   4.473  0.1294  0.1343 -0.0663
    1IPC    C4B71789  22.980   5.960   4.709 -0.2336 -0.0050 -0.0530
    1IPC    NC371790  23.050  22.690   2.646 -0.1858 -0.3327 -0.0288
    1IPC    PO471791  22.773  22.498   3.041 -0.2396 -0.1549  0.2390
    1IPC    GL171792  22.718  22.737   3.463 -0.1051  0.0563  0.2243
    1IPC    GL271793  22.756  22.623   3.744 -0.1405  0.1280  0.0257
    1IPC    C1B71794  22.999  22.467   4.129 -0.1018 -0.0786 -0.1288
    1IPC    D2B71795  23.187  22.539   4.674  0.2952 -0.0665 -0.1083
    1IPC    D3B71796  22.782  22.634   4.924  0.1962  0.0943 -0.0304
    1IPC    C4B71797  22.379  22.759   4.993  0.2366 -0.2563  0.3152
    1IPC    NC371798  26.275   9.922   2.250  0.1611 -0.0208  0.2963
    1IPC    PO471799  26.007   9.707   2.393  0.1910 -0.1489  0.0242
    1IPC    GL171800  25.797   9.748   2.676  0.0103 -0.1572  0.0829
    1IPC    GL271801  25.831   9.709   2.955 -0.1784  0.0053 -0.1261
    1IPC    C1B71802  25.849   9.671   3.289 -0.2877  0.0506 -0.2390
    1IPC    D2B71803  25.815   9.720   3.722  0.0158 -0.1151 -0.0560
    1IPC    D3B71804  26.145   9.746   3.922 -0.0225 -0.0474 -0.1418
    1IPC    C4B71805  26.389   9.887   4.226 -0.0035 -0.0625  0.0093
    1IPC    NC371806  25.515  23.926   2.270 -0.1339  0.0500  0.0946
    1IPC    PO471807  25.910  24.173   2.479 -0.0482  0.0546  0.1831
    1IPC    GL171808  26.024  24.103   2.936  0.2210  0.1461 -0.1372
    1IPC    GL271809  26.053  23.990   3.197 -0.2096  0.2611 -0.1880
    1IPC    C1B71810  26.046  23.987   3.544  0.4228  0.0049 -0.0266
    1IPC    D2B71811  26.288  23.708   3.919 -0.0895 -0.3001  0.2377
    1IPC    D3B71812  26.034  23.738   4.226 -0.1251  0.1256  0.1548
    1IPC    C4B71813  26.318  23.927   4.548  0.1885 -0.0545 -0.3044
    1IPC    NC371814  14.113   1.664   3.677 -0.0119 -0.1566  0.1628
    1IPC    PO471815  14.314   2.065   3.537  0.0086 -0.1484 -0.0581
    1IPC    GL171816  14.282   2.059   3.975  0.1210 -0.3376 -0.1639
    1IPC    GL271817  14.444   2.284   4.228  0.1537 -0.2303 -0.1386
    1IPC    C1B71818  14.517   2.460   4.569 -0.2123 -0.2796  0.1462
    1IPC    D2B71819  14.738   2.741   4.754  0.0782  0.1783 -0.1723
    1IPC    D3B71820  14.468   2.854   4.974 -0.4257 -0.0594 -0.0433
    1IPC    C4B71821  14.402   2.878   5.374 -0.1394  0.0168  0.2082
    1IPC    NC371822   7.423  22.074   1.155  0.1195 -0.3055 -0.0310
    1IPC    PO471823   7.778  22.362   1.398  0.0066  0.0852  0.0640
    1IPC    GL171824   7.735  22.286   1.809 -0.2153 -0.1781 -0.0124
    1IPC    GL271825   7.615  22.337   2.029  0.2894 -0.0161 -0.3199
    1IPC    C1B71826   7.447  22.150   2.482  0.1078 -0.2608  0.1768
    1IPC    D2B71827   7.340  22.196   2.902 -0.3791 -0.3783  0.2185
    1IPC    D3B71828   7.452  21.976   3.253 -0.1451  0.1471  0.0314
    1IPC    C4B71829   7.655  21.644   3.241  0.0398 -0.0847 -0.1907
    1IPC    NC371830   9.662   5.128   3.121  0.0796 -0.1139  0.1194
    1IPC    PO471831   9.828   4.810   3.303  0.1014  0.1379  0.0514
    1IPC    GL171832   9.407   4.714   3.512  0.2267 -0.1333  0.1660
    1IPC    GL271833   9.191   4.805   3.811 -0.0904  0.0867  0.0232
    1IPC    C1B71834   8.865   4.924   3.833  0.1794  0.2913  0.3415
    1IPC    D2B71835   8.733   5.186   4.148 -0.1700  0.0519  0.1608
    1IPC    D3B71836   9.012   5.283   4.354  0.0363  0.0893 -0.0651
    1IPC    C4B71837   9.009   5.521   4.724 -0.1054 -0.1478  0.1038
    1IPC    NC371838  19.186  27.394   3.498 -0.0127  0.1575 -0.0479
    1IPC    PO471839  18.813  27.500   3.536  0.0107  0.0221  0.0591
    1IPC    GL171840  18.816  27.346   3.881  0.0557  0.3727 -0.1246
    1IPC    GL271841  18.979  27.140   3.931 -0.2173  0.0898 -0.2026
    1IPC    C1B71842  19.179  27.051   4.261  0.0918  0.1255  0.2804
    1IPC    D2B71843  19.431  26.695   4.369  0.0849 -0.1016 -0.0122
    1IPC    D3B71844  19.607  26.741   4.746 -0.2014  0.0621  0.0415
    1IPC    C4B71845  19.942  26.812   4.920  0.1270 -0.1476  0.0695
    1IPC    NC371846   1.660  19.667   1.965  0.2841 -0.0431  0.0502
    1IPC    PO471847   1.446  19.540   2.294 -0.1148 -0.0850  0.0724
    1IPC    GL171848   1.440  19.671   2.752 -0.2758  0.1801 -0.2671
    1IPC    GL271849   1.550  19.633   3.077  0.0723  0.0562 -0.1044
    1IPC    C1B71850   1.520  19.866   3.520 -0.0217  0.0202 -0.2075
    1IPC    D2B71851   1.757  19.888   3.930 -0.1397  0.0775 -0.0471
    1IPC    D3B71852   1.329  20.033   3.971 -0.1613 -0.0843  0.0030
    1IPC    C4B71853   1.129  20.320   4.284 -0.0880 -0.0343  0.1334
    1IPC    NC371854  22.181  22.515   2.850  0.0627  0.3253  0.0364
    1IPC    PO471855  22.179  22.749   3.264 -0.1223 -0.3407  0.4946
    1IPC    GL171856  22.240  22.927   3.571 -0.1779  0.0852  0.0891
    1IPC    GL271857  22.250  22.817   3.976  0.2737  0.0709  0.1779
    1IPC    C1B71858  22.480  23.073   4.055  0.0596 -0.0380  0.0491
    1IPC    D2B71859  22.616  23.369   4.352  0.1188 -0.2643 -0.1252
    1IPC    D3B71860  23.021  23.227   4.514 -0.1246  0.1377  0.0211
    1IPC    C4B71861  23.223  23.011   4.777 -0.1366 -0.0057  0.0273
    1IPC    NC371862  27.036  13.460   1.608 -0.4649  0.1972  0.0177
    1IPC    PO471863  27.133  13.872   1.873 -0.1342 -0.0134  0.0001
    1IPC    GL171864  26.985  13.924   2.293 -0.1735 -0.0649 -0.0071
    1IPC    GL271865  26.900  13.900   2.660  0.1633 -0.3907  0.0957
    1IPC    C1B71866  26.875  13.928   2.985  0.0107  0.3008  0.1604
    1IPC    D2B71867  27.165  14.059   3.345  0.2309 -0.1303  0.0018
    1IPC    D3B71868  26.763  13.972   3.541  0.2533 -0.2021 -0.0590
    1IPC    C4B71869  26.504  14.180   3.859 -0.1456 -0.0512 -0.0147
    1IPC    NC371870   2.926   9.575   2.850  0.2182  0.1842  0.1696
    1IPC    PO471871   2.579   9.757   3.079 -0.2806 -0.0191 -0.1212
    1IPC    GL171872   2.609   9.763   3.471  0.0051  0.1483  0.2463
    1IPC    GL271873   2.644   9.780   3.724 -0.2309  0.0758 -0.0356
    1IPC    C1B71874   2.791   9.694   4.058  0.2866  0.0118  0.0957
    1IPC    D2B71875   2.821   9.856   4.406  0.2045  0.1707  0.1254
    1IPC    D3B71876   2.591   9.831   4.790  0.0808  0.1792  0.0736
    1IPC    C4B71877   2.547   9.494   5.199  0.1147 -0.1484  0.1351
    1IPC    NC371878  23.939  10.506   2.090 -0.0662 -0.2564 -0.0083
    1IPC    PO471879  23.791  10.938   2.154 -0.3804 -0.2925 -0.2150
    1IPC    GL171880  23.980  10.788   2.545 -0.1531 -0.2351 -0.0646
    1IPC    GL271881  23.990  10.915   2.874 -0.1217 -0.1839 -0.0415
    1IPC    C1B71882  23.974  11.050   3.237  0.1428  0.3068  0.0272
    1IPC    D2B71883  24.094  10.901   3.657  0.2498 -0.0538 -0.2177
    1IPC    D3B71884  23.743  11.034   3.829 -0.0224  0.1080  0.1408
    1IPC    C4B71885  23.614  11.441   3.919 -0.3980  0.0630  0.1578
    1IPC    NC371886  29.512   6.091   2.328  0.1734  0.0457  0.0477
    1IPC    PO471887  29.428   6.444   2.694 -0.1722 -0.3108 -0.1777
    1IPC    GL171888  29.359   6.308   3.123  0.1135 -0.2176 -0.1231
    1IPC    GL271889  29.121   6.478   3.391  0.2202  0.2726 -0.1408
    1IPC    C1B71890  28.802   6.630   3.614  0.0346  0.1140 -0.0034
    1IPC    D2B71891  28.495   6.360   3.855 -0.1776  0.1161 -0.0364
    1IPC    D3B71892  28.625   6.429   4.323  0.2407  0.2044 -0.2118
    1IPC    C4B71893  29.000   6.496   4.451 -0.1386  0.1221  0.0988
    1IPC    NC371894  19.918   1.531   3.094  0.1537 -0.0226 -0.3565
    1IPC    PO471895  20.227   1.585   2.860  0.0913  0.0078  0.2454
    1IPC    GL171896  20.361   1.554   3.314 -0.4919  0.1279  0.1883
    1IPC    GL271897  20.470   1.777   3.528  0.0528  0.1300 -0.3997
    1IPC    C1B71898  20.574   1.989   3.905 -0.0963 -0.1563  0.0081
    1IPC    D2B71899  20.574   2.149   4.320  0.2258  0.1588  0.1709
    1IPC    D3B71900  20.196   1.747   4.288 -0.2623 -0.2292  0.0690
    1IPC    C4B71901  19.854   1.852   4.428  0.0478  0.1499  0.1855
    1IPC    NC371902   2.464  27.628   3.027 -0.1740 -0.0366  0.1324
    1IPC    PO471903   2.210  27.907   2.850 -0.1009  0.3952  0.0378
    1IPC    GL171904   2.216  28.084   3.273  0.2913  0.3450 -0.0364
    1IPC    GL271905   2.072  28.140   3.525 -0.3384  0.4005  0.2357
    1IPC    C1B71906   1.731  28.019   3.754  0.0651 -0.2275 -0.0796
    1IPC    D2B71907   1.401  28.199   3.881 -0.2219  0.2501 -0.1831
    1IPC    D3B71908   1.219  28.064   4.241  0.1367 -0.0550  0.1880
    1IPC    C4B71909   1.290  28.166   4.598 -0.5431 -0.0716 -0.0759
    1IPC    NC371910   5.130  29.710   2.908 -0.1151  0.2385 -0.1324
    1IPC    PO471911   5.353  29.859   3.353  0.1370  0.3480 -0.0504
    1IPC    GL171912   5.219  29.580   3.705  0.0240  0.0034 -0.1645
    1IPC    GL271913   5.449  29.562   3.994  0.0904  0.2218  0.1864
    1IPC    C1B71914   5.769  29.510   4.247 -0.0960  0.0528  0.0091
    1IPC    D2B71915   5.939  29.342   4.701 -0.1826  0.0416 -0.1824
    1IPC    D3B71916   6.087  28.992   4.592 -0.1208  0.0272 -0.1371
    1IPC    C4B71917   6.365  28.893   4.339 -0.2123 -0.4473 -0.2637
    1IPC    NC371918  14.700  26.887   2.408 -0.0948 -0.1005 -0.1803
    1IPC    PO471919  15.072  27.083   2.490 -0.4078  0.1605  0.1630
    1IPC    GL171920  14.823  27.038   2.902 -0.2189 -0.3198 -0.0885
    1IPC    GL271921  14.970  27.027   3.239  0.0584 -0.2624  0.2344
    1IPC    C1B71922  15.118  26.924   3.659  0.1218  0.1235 -0.3193
    1IPC    D2B71923  15.365  26.866   4.164  0.0810  0.1428 -0.1232
    1IPC    D3B71924  15.167  26.898   4.560 -0.1108 -0.0218 -0.1105
    1IPC    C4B71925  14.763  26.606   4.578 -0.0148 -0.0106 -0.0276
    1IPC    NC371926  28.796  14.797   2.122  0.2658  0.1929 -0.2431
    1IPC    PO471927  28.520  14.711   2.540  0.0068 -0.1136 -0.0915
    1IPC    GL171928  28.577  15.011   2.810 -0.1504 -0.1083  0.0950
    1IPC    GL271929  28.901  15.210   2.972 -0.1722  0.1606 -0.2275
    1IPC    C1B71930  28.890  15.119   3.438  0.2142  0.2252 -0.0061
    1IPC    D2B71931  29.152  14.778   3.603 -0.1390 -0.0086  0.1326
    1IPC    D3B71932  29.201  14.405   3.885 -0.1523 -0.1592 -0.0745
    1IPC    C4B71933  29.666  14.235   3.819 -0.0078 -0.0610 -0.0003
    1IPC    NC371934   6.455   2.967   3.116 -0.4057 -0.0696 -0.1835
    1IPC    PO471935   6.031   2.985   3.216  0.0423  0.3641  0.0000
    1IPC    GL171936   5.819   2.766   3.510  0.0674  0.1604  0.1344
    1IPC    GL271937   5.807   2.616   3.752  0.2345  0.0074 -0.1034
    1IPC    C1B71938   5.644   2.445   4.122  0.1691  0.2266 -0.1957
    1IPC    D2B71939   5.474   2.598   4.512 -0.2651 -0.2867  0.2490
    1IPC    D3B71940   5.486   2.787   4.921  0.1066  0.2039  0.1331
    1IPC    C4B71941   5.794   2.769   5.328  0.0755 -0.0277  0.1243
    1IPC    NC371942  23.523  21.542   2.052 -0.0920  0.3222 -0.1215
    1IPC    PO471943  23.597  21.388   2.582 -0.0224 -0.2075  0.0437
    1IPC    GL171944  23.560  21.433   3.041 -0.5239  0.0550 -0.1448
    1IPC    GL271945  23.662  21.238   3.203  0.1107  0.0149  0.0711
    1IPC    C1B71946  23.862  21.229   3.514  0.0351 -0.0713  0.1198
    1IPC    D2B71947  23.752  21.442   3.908  0.1767 -0.2206 -0.0643
    1IPC    D3B71948  23.409  21.263   4.260  0.1062 -0.1177  0.3225
    1IPC    C4B71949  23.493  20.985   4.606  0.3222  0.2451 -0.1585
    1IPC    NC371950   3.059   7.032   3.278 -0.2486  0.1981  0.1562
    1IPC    PO471951   2.595   6.956   3.179  0.2555 -0.2550 -0.2942
    1IPC    GL171952   2.296   7.125   3.538  0.0171  0.0825 -0.1768
    1IPC    GL271953   2.364   7.320   3.809  0.1266  0.2855 -0.0360
    1IPC    C1B71954   2.168   7.290   4.174 -0.0008 -0.0946  0.0634
    1IPC    D2B71955   1.866   7.124   4.413 -0.1857  0.3472 -0.0380
    1IPC    D3B71956   1.942   6.627   4.527  0.0857 -0.0622  0.1125
    1IPC    C4B71957   1.688   6.277   4.713 -0.0149  0.0946 -0.0837
    1IPC    NC371958   8.036  25.232   2.127  0.0938 -0.0463 -0.0285
    1IPC    PO471959   8.405  25.313   2.351 -0.0977 -0.0727  0.0707
    1IPC    GL171960   8.570  25.057   2.711  0.0094 -0.0260  0.3603
    1IPC    GL271961   8.764  24.825   2.828 -0.2140 -0.1271 -0.1655
    1IPC    C1B71962   8.800  24.433   3.020 -0.0261  0.0907  0.0418
    1IPC    D2B71963   8.874  24.155   3.455 -0.0032 -0.0949  0.0013
    1IPC    D3B71964   8.504  24.236   3.633  0.2504  0.1588 -0.1266
    1IPC    C4B71965   8.296  23.848   3.572 -0.3830  0.2959  0.1872
    1IPC    NC371966   0.995   4.013   2.318 -0.1346 -0.0584 -0.3060
    1IPC    PO471967   0.574   4.086   2.102 -0.3667  0.0672  0.2063
    1IPC    GL171968   0.467   3.947   2.493  0.0379  0.0967 -0.0653
    1IPC    GL271969   0.432   3.749   2.806 -0.3358  0.0881 -0.3354
    1IPC    C1B71970   0.498   3.982   3.221 -0.0179 -0.1404  0.3277
    1IPC    D2B71971   0.930   4.121   3.375 -0.0246 -0.2036 -0.1117
    1IPC    D3B71972   0.980   3.998   3.730 -0.0448  0.0214  0.2956
    1IPC    C4B71973   1.450   3.895   3.861  0.0550 -0.0141 -0.0286
    1IPC    NC371974  11.318  24.739   1.828  0.0561 -0.5012  0.0813
    1IPC    PO471975  11.508  24.868   2.160  0.0842 -0.0479 -0.0035
    1IPC    GL171976  11.861  24.781   2.440  0.0016 -0.3400  0.0441
    1IPC    GL271977  12.037  24.853   2.749 -0.0707  0.5797  0.1464
    1IPC    C1B71978  12.046  24.741   3.173  0.3106  0.1581 -0.2689
    1IPC    D2B71979  12.109  24.355   3.351 -0.1209 -0.0575 -0.3735
    1IPC    D3B71980  11.849  24.004   3.595  0.2920  0.2069  0.3563
    1IPC    C4B71981  11.658  24.029   3.989 -0.3095  0.1958 -0.0920
    1IPC    NC371982  20.310  24.289   2.340 -0.0832  0.0166 -0.0925
    1IPC    PO471983  20.362  24.138   2.664  0.0572  0.2484  0.1140
    1IPC    GL171984  20.567  24.120   3.061 -0.1214 -0.0099  0.0165
    1IPC    GL271985  20.604  24.111   3.422  0.1183  0.0641  0.0663
    1IPC    C1B71986  20.624  24.239   3.769 -0.0864  0.2081  0.2685
    1IPC    D2B71987  20.582  24.407   4.176 -0.3311 -0.2862 -0.1971
    1IPC    D3B71988  20.357  24.414   4.581 -0.2856  0.0857 -0.1240
    1IPC    C4B71989  20.456  24.099   4.877 -0.1147  0.2095  0.0119
    1IPC    NC371990   2.216  24.371   1.383 -0.0821 -0.0209  0.0122
    1IPC    PO471991   1.815  24.525   1.540  0.0472  0.1017 -0.1956
    1IPC    GL171992   1.954  24.424   1.976 -0.1935  0.2125  0.1919
    1IPC    GL271993   2.135  24.331   2.239 -0.1634 -0.0081  0.0510
    1IPC    C1B71994   2.298  24.339   2.657 -0.3394 -0.1837  0.1636
    1IPC    D2B71995   2.488  24.054   2.979 -0.2092 -0.2162 -0.2830
    1IPC    D3B71996   2.762  24.356   3.248 -0.3540  0.2004 -0.0235
    1IPC    C4B71997   3.136  24.424   3.213  0.0969 -0.0618 -0.1704
    1IPC    NC371998   6.504  11.964   2.515 -0.1466  0.0427 -0.1958
    1IPC    PO471999   6.832  11.892   2.833 -0.0206  0.0903  0.1747
    1IPC    GL172000   6.486  11.831   3.014  0.1155  0.0128  0.1671
    1IPC    GL272001   6.335  11.715   3.243 -0.0197  0.2849 -0.1302
    1IPC    C1B72002   6.150  11.700   3.659  0.0837  0.2761 -0.0802
    1IPC    D2B72003   6.042  11.607   4.078  0.0761 -0.2027  0.3246
    1IPC    D3B72004   6.139  11.819   4.536 -0.0569  0.0678  0.1075
    1IPC    C4B72005   6.568  11.975   4.640 -0.0205  0.0241 -0.1200
    1IPC    NC372006  23.423  19.982   2.785 -0.1677 -0.2161 -0.1304
    1IPC    PO472007  23.433  20.472   2.882 -0.2678 -0.0584  0.0132
    1IPC    GL172008  23.309  20.653   3.278  0.1577  0.0817 -0.1620
    1IPC    GL272009  23.328  20.915   3.385  0.5978  0.0516 -0.1701
    1IPC    C1B72010  23.512  20.967   3.778  0.0060  0.1066  0.1508
    1IPC    D2B72011  23.692  20.610   4.270 -0.0928  0.0714 -0.1455
    1IPC    D3B72012  23.690  20.460   4.672 -0.3003  0.0113 -0.1463
    1IPC    C4B72013  23.511  20.256   5.098 -0.0450 -0.4686  0.2392
    1IPC    NC372014  21.015   7.743   2.202 -0.4478  0.1577 -0.0283
    1IPC    PO472015  20.539   7.994   2.272 -0.0303 -0.0288  0.0878
    1IPC    GL172016  20.063   8.113   2.351  0.0742 -0.0046 -0.1089
    1IPC    GL272017  19.849   8.046   2.587 -0.3054  0.0754 -0.0136
    1IPC    C1B72018  19.771   8.158   3.061  0.0888  0.0337 -0.0993
    1IPC    D2B72019  19.649   8.316   3.414  0.1444 -0.3425  0.0842
    1IPC    D3B72020  19.141   8.436   3.378 -0.0255 -0.2102  0.2649
    1IPC    C4B72021  18.904   8.271   2.917 -0.1352  0.1186 -0.0254
    1IPC    NC372022  10.685   5.806   2.931  0.0433 -0.3250 -0.0656
    1IPC    PO472023  10.517   6.141   3.180  0.0903 -0.0409  0.3325
    1IPC    GL172024  10.931   6.215   3.436 -0.0498  0.0415  0.2872
    1IPC    GL272025  11.011   6.284   3.718  0.4041 -0.1889  0.1286
    1IPC    C1B72026  10.726   6.048   3.856 -0.0032  0.2821 -0.1241
    1IPC    D2B72027  10.457   5.811   4.107 -0.2002 -0.1870  0.0314
    1IPC    D3B72028  10.433   6.238   4.322  0.0524  0.1524 -0.2303
    1IPC    C4B72029  10.511   6.167   4.719  0.0902  0.3077  0.0911
    1IPC    NC372030   6.844   2.086   2.855  0.1153 -0.0399  0.2378
    1IPC    PO472031   6.520   1.983   3.240  0.1910 -0.0643 -0.2119
    1IPC    GL172032   6.308   1.889   3.604  0.0633 -0.2169  0.2721
    1IPC    GL272033   6.320   1.841   3.936  0.1152 -0.0335  0.5232
    1IPC    C1B72034   6.594   1.542   4.177 -0.0206  0.3087 -0.0934
    1IPC    D2B72035   6.881   1.173   4.077 -0.1472 -0.0315  0.1062
    1IPC    D3B72036   6.834   0.884   4.487  0.1890  0.2269  0.1475
    1IPC    C4B72037   7.234   0.574   4.483 -0.0914 -0.1066 -0.0347
    1IPC    NC372038  26.325  18.561   2.118  0.0325 -0.3077  0.3022
    1IPC    PO472039  26.707  18.791   2.360  0.2398 -0.0916  0.1572
    1IPC    GL172040  26.654  19.077   2.731  0.2749 -0.2232  0.1436
    1IPC    GL272041  26.488  19.211   2.933  0.0069  0.0450 -0.0499
    1IPC    C1B72042  26.355  19.046   3.284  0.1200  0.1943  0.1653
    1IPC    D2B72043  26.406  18.656   3.591  0.0314 -0.1897 -0.1780
    1IPC    D3B72044  26.085  18.633   3.989  0.0086 -0.2051 -0.0382
    1IPC    C4B72045  25.940  19.068   4.220 -0.0008 -0.1566 -0.1114
    1IPC    NC372046   5.823   9.293   2.889  0.4123 -0.0409 -0.3669
    1IPC    PO472047   5.888   8.998   3.234 -0.0408  0.0864  0.5674
    1IPC    GL172048   5.646   8.885   3.577  0.1211 -0.1918  0.2110
    1IPC    GL272049   5.503   8.941   3.756 -0.2136  0.1642 -0.0899
    1IPC    C1B72050   5.439   9.051   4.109 -0.1158 -0.1098 -0.2541
    1IPC    D2B72051   5.622   9.058   4.493  0.0043  0.0651 -0.0685
    1IPC    D3B72052   5.359   9.145   4.879 -0.1845  0.3785 -0.0593
    1IPC    C4B72053   5.469   8.907   5.201  0.1560  0.0954  0.1565
    1IPC    NC372054  13.391   2.687   3.174 -0.1429  0.1194  0.0640
    1IPC    PO472055  13.745   2.461   3.213  0.2297 -0.3530  0.0381
    1IPC    GL172056  14.091   2.539   3.548 -0.0795  0.0426 -0.0441
    1IPC    GL272057  14.260   2.571   3.853 -0.1806 -0.2777  0.0683
    1IPC    C1B72058  14.203   2.695   4.270  0.2609 -0.2764  0.3371
    1IPC    D2B72059  14.293   3.102   4.480  0.0775  0.1736  0.2549
    1IPC    D3B72060  14.387   3.327   4.887 -0.0505  0.1914 -0.0489
    1IPC    C4B72061  14.030   3.541   5.051 -0.0275  0.1120  0.2172
    1IPC    NC372062  15.370   3.344   2.447  0.1685  0.1224  0.2480
    1IPC    PO472063  15.643   3.147   2.753 -0.0324 -0.2336  0.1766
    1IPC    GL172064  15.772   3.131   3.128 -0.0296  0.0011  0.0125
    1IPC    GL272065  15.672   3.163   3.470 -0.1694  0.2232  0.2701
    1IPC    C1B72066  15.439   3.294   3.745  0.0903 -0.0901  0.1246
    1IPC    D2B72067  15.492   3.369   4.232 -0.0951 -0.2010 -0.0628
    1IPC    D3B72068  15.853   3.311   4.396  0.0392  0.0745 -0.1627
    1IPC    C4B72069  16.210   3.638   4.431 -0.2331 -0.0687  0.0686
    1IPC    NC372070  24.733   8.254   1.995 -0.1362  0.1619 -0.1603
    1IPC    PO472071  24.507   8.552   2.297 -0.3954  0.0628 -0.2730
    1IPC    GL172072  24.826   8.448   2.723 -0.1005  0.2683 -0.1223
    1IPC    GL272073  24.880   8.510   2.987 -0.0392 -0.0274  0.1290
    1IPC    C1B72074  25.137   8.668   3.379  0.0511 -0.3194 -0.0162
    1IPC    D2B72075  25.241   9.011   3.732  0.1573  0.2575  0.1368
    1IPC    D3B72076  25.096   9.176   3.408  0.0666 -0.0705 -0.4049
    1IPC    C4B72077  25.299   9.566   3.386  0.1373  0.1274  0.0922
    1IPC    NC372078  22.835  26.479   2.528  0.0875 -0.2603 -0.1110
    1IPC    PO472079  22.602  26.347   2.889 -0.1607 -0.0330 -0.2977
    1IPC    GL172080  22.673  26.523   3.250  0.0595 -0.2739  0.3271
    1IPC    GL272081  22.645  26.806   3.373 -0.0442 -0.0691  0.0691
    1IPC    C1B72082  22.652  27.031   3.802 -0.0964 -0.1235  0.0010
    1IPC    D2B72083  22.658  27.341   4.136  0.2889  0.0976  0.0116
    1IPC    D3B72084  22.764  27.385   4.462  0.1066  0.3141 -0.1714
    1IPC    C4B72085  22.567  27.413   4.782  0.1390 -0.1952  0.2745
    1IPC    NC372086  29.143  10.861   2.303 -0.3599 -0.3089 -0.0089
    1IPC    PO472087  28.907  10.761   2.717 -0.1990  0.1201  0.0207
    1IPC    GL172088  28.695  10.633   2.968  0.1334  0.0502  0.0027
    1IPC    GL272089  28.478  10.358   3.101  0.1479 -0.2749 -0.0344
    1IPC    C1B72090  28.525  10.019   3.295  0.0060 -0.2428 -0.1342
    1IPC    D2B72091  28.710   9.659   3.521  0.1047 -0.0367 -0.0055
    1IPC    D3B72092  28.389   9.471   3.870 -0.3066  0.2183  0.1159
    1IPC    C4B72093  27.944   9.502   3.826  0.2435 -0.0260  0.1146
    1IPC    NC372094  11.933  28.900   3.191 -0.0308 -0.0628 -0.3733
    1IPC    PO472095  12.234  29.169   2.935  0.2030  0.0967  0.0282
    1IPC    GL172096  12.286  29.144   3.410  0.1918  0.0417 -0.0789
    1IPC    GL272097  12.336  29.203   3.677  0.0418  0.0726 -0.0098
    1IPC    C1B72098  12.085  29.306   4.099  0.0190 -0.3243 -0.0018
    1IPC    D2B72099  12.117  29.423   4.466 -0.0216  0.0223 -0.0269
    1IPC    D3B72100  11.750  29.252   4.537 -0.2627 -0.1427 -0.0253
    1IPC    C4B72101  11.475  29.176   4.303 -0.0329 -0.0297 -0.1458
    1IPC    NC372102   7.494  25.932   1.946  0.0361 -0.1551  0.0336
    1IPC    PO472103   7.224  25.938   2.236  0.1003 -0.0637 -0.2553
    1IPC    GL172104   6.998  25.886   2.583  0.2085 -0.3449 -0.1417
    1IPC    GL272105   6.844  25.725   2.843 -0.1297 -0.0181 -0.2338
    1IPC    C1B72106   6.634  25.507   3.169 -0.2592 -0.3397  0.0532
    1IPC    D2B72107   6.516  25.525   3.610  0.1269  0.2507  0.3835
    1IPC    D3B72108   6.710  25.197   3.865 -0.0466 -0.0561 -0.0049
    1IPC    C4B72109   6.749  25.108   4.338  0.0241  0.1857 -0.0804
    1IPC    NC372110   7.226  18.824   1.789  0.0239 -0.0799  0.0740
    1IPC    PO472111   6.842  18.981   1.992  0.1049  0.0470 -0.0500
    1IPC    GL172112   7.077  19.083   2.341 -0.1438 -0.2377  0.1164
    1IPC    GL272113   7.166  19.331   2.550 -0.0415 -0.1737  0.0295
    1IPC    C1B72114   7.078  19.631   3.017 -0.0251  0.0548  0.0117
    1IPC    D2B72115   6.684  19.566   3.389 -0.2034 -0.0528 -0.0951
    1IPC    D3B72116   6.616  19.943   3.724 -0.2198  0.3146 -0.0902
    1IPC    C4B72117   6.169  20.214   3.681  0.0068 -0.0863 -0.2815
    1IPC    NC372118  11.479   3.336   2.863 -0.0835  0.0695 -0.0596
    1IPC    PO472119  11.576   3.259   3.243 -0.2241 -0.0149 -0.0080
    1IPC    GL172120  11.577   3.462   3.559 -0.2608  0.0160  0.1500
    1IPC    GL272121  11.672   3.509   3.948  0.3475 -0.0375  0.1787
    1IPC    C1B72122  11.913   3.655   4.347  0.1360  0.0965  0.2242
    1IPC    D2B72123  11.700   3.980   4.626  0.2284 -0.0411  0.1074
    1IPC    D3B72124  12.070   4.226   4.938 -0.0342  0.0092  0.2169
    1IPC    C4B72125  12.407   4.105   5.087 -0.3172 -0.1099  0.1407
    1IPC    NC372126   6.584  23.191   2.634 -0.1499 -0.1056 -0.0239
    1IPC    PO472127   6.674  22.896   2.201  0.2250 -0.4003 -0.3132
    1IPC    GL172128   6.817  22.728   2.459  0.1100 -0.3984  0.0063
    1IPC    GL272129   6.644  22.467   2.597 -0.2156  0.1162  0.0925
    1IPC    C1B72130   6.855  22.395   2.961 -0.2656  0.0920 -0.1669
    1IPC    D2B72131   6.880  22.098   3.266  0.1151 -0.1739 -0.1337
    1IPC    D3B72132   6.833  22.353   3.588  0.4495  0.0951 -0.0942
    1IPC    C4B72133   6.877  22.135   3.955 -0.0386 -0.1181  0.0236
    1IPC    NC372134   6.283   3.298   3.519  0.0396  0.0464  0.0472
    1IPC    PO472135   6.793   3.229   3.428 -0.1005 -0.1363  0.2283
    1IPC    GL172136   6.884   3.523   3.720 -0.4902  0.2253 -0.1142
    1IPC    GL272137   7.092   3.554   4.045  0.1783  0.4084  0.0541
    1IPC    C1B72138   7.200   3.624   4.381  0.3652  0.1968  0.1411
    1IPC    D2B72139   7.203   3.578   4.798 -0.1689 -0.2003 -0.0862
    1IPC    D3B72140   7.007   3.438   5.141 -0.3184 -0.0848  0.1401
    1IPC    C4B72141   7.080   3.284   5.456  0.0512  0.0587 -0.2046
    1IPC    NC372142  23.205  26.397   1.944 -0.0191  0.0675 -0.0837
    1IPC    PO472143  23.341  26.393   2.433 -0.1511  0.2967 -0.1424
    1IPC    GL172144  23.209  26.406   2.866  0.0466  0.0826  0.1811
    1IPC    GL272145  23.113  26.278   3.174  0.0470  0.0859 -0.3303
    1IPC    C1B72146  23.174  26.563   3.496  0.0510  0.2137 -0.4035
    1IPC    D2B72147  22.960  26.680   3.774 -0.1958  0.1185  0.2657
    1IPC    D3B72148  22.916  26.873   4.186 -0.0987 -0.1650 -0.3809
    1IPC    C4B72149  23.135  26.692   4.462 -0.0233 -0.0028 -0.1863
    1IPC    NC372150  26.273  14.105   2.068 -0.0307  0.0288  0.2239
    1IPC    PO472151  25.862  14.337   2.189  0.0986 -0.0276  0.1620
    1IPC    GL172152  26.107  14.146   2.651  0.1465  0.4569 -0.0264
    1IPC    GL272153  26.387  14.086   2.803  0.1014 -0.3799 -0.3864
    1IPC    C1B72154  26.313  14.156   3.314  0.2470 -0.1206  0.1747
    1IPC    D2B72155  25.948  14.160   3.736 -0.1237  0.1331 -0.0769
    1IPC    D3B72156  25.950  14.104   4.222  0.0323 -0.1773  0.1473
    1IPC    C4B72157  25.583  13.764   4.459 -0.1317  0.0422  0.2126
    1IPC    NC372158   6.743  13.823   2.340  0.0996  0.1842 -0.0671
    1IPC    PO472159   6.397  13.721   2.637  0.0036  0.1160  0.1419
    1IPC    GL172160   6.453  14.033   3.000 -0.3288  0.2202 -0.0859
    1IPC    GL272161   6.518  14.273   3.243  0.1058 -0.0934  0.0072
    1IPC    C1B72162   6.651  14.589   3.563 -0.0252  0.0189  0.1830
    1IPC    D2B72163   6.506  14.756   3.882 -0.0549  0.2739  0.1181
    1IPC    D3B72164   6.560  14.391   4.061  0.0808 -0.1241  0.2290
    1IPC    C4B72165   6.907  14.269   4.484  0.0970 -0.0511 -0.0550
    1IPC    NC372166  27.936   6.731   2.706  0.3207 -0.2102 -0.1199
    1IPC    PO472167  28.134   6.429   2.847  0.3695 -0.3044 -0.1790
    1IPC    GL172168  27.745   6.550   3.124  0.1192  0.0990 -0.0745
    1IPC    GL272169  27.812   6.531   3.437 -0.2639  0.1078 -0.0938
    1IPC    C1B72170  28.071   6.774   3.690 -0.0299 -0.3005  0.2007
    1IPC    D2B72171  27.983   7.170   3.961 -0.0905 -0.2690  0.2156
    1IPC    D3B72172  28.409   7.066   3.858  0.1421 -0.0019 -0.0082
    1IPC    C4B72173  28.531   6.976   3.426  0.1305 -0.1245  0.0360
    1IPC    NC372174  25.281   5.642   2.248 -0.1790  0.0924 -0.2066
    1IPC    PO472175  25.340   5.794   2.647 -0.1868  0.1789  0.3463
    1IPC    GL172176  25.587   5.501   2.885  0.0767 -0.0920  0.0250
    1IPC    GL272177  25.698   5.479   3.201 -0.0903 -0.1467 -0.1545
    1IPC    C1B72178  25.830   5.413   3.640  0.0376 -0.0150  0.1079
    1IPC    D2B72179  25.778   5.438   4.170 -0.4892  0.1718 -0.1926
    1IPC    D3B72180  25.419   5.277   3.961  0.1885 -0.1251 -0.0383
    1IPC    C4B72181  25.597   4.943   3.697  0.3247  0.1294 -0.2223
    1IPC    NC372182   4.181   0.490   2.342  0.2527 -0.3099 -0.0404
    1IPC    PO472183   3.916   0.588   2.773  0.0794  0.2943  0.1564
    1IPC    GL172184   3.640   0.739   3.135  0.0494  0.0678  0.1839
    1IPC    GL272185   3.652   0.796   3.470  0.1391 -0.0502  0.0672
    1IPC    C1B72186   3.892   0.911   3.814 -0.0021 -0.1287 -0.0198
    1IPC    D2B72187   3.976   1.116   4.172 -0.0568 -0.1527 -0.0375
    1IPC    D3B72188   3.507   1.139   4.186 -0.1725 -0.1763 -0.0154
    1IPC    C4B72189   3.468   1.147   4.686  0.2466  0.0134 -0.1397
    1IPC    NC372190  26.935   8.401   2.401  0.1634  0.0460 -0.0428
    1IPC    PO472191  27.363   8.221   2.537 -0.2032 -0.3649 -0.0590
    1IPC    GL172192  27.267   8.115   2.897 -0.1851  0.0114  0.0119
    1IPC    GL272193  27.339   7.998   3.216 -0.0707  0.1196 -0.1787
    1IPC    C1B72194  27.313   8.191   3.621 -0.0355 -0.0315  0.4895
    1IPC    D2B72195  27.344   8.240   4.096  0.2483  0.4088  0.2696
    1IPC    D3B72196  27.665   8.409   4.360 -0.1000 -0.1453 -0.1642
    1IPC    C4B72197  27.718   8.152   4.756  0.5441  0.2929  0.1481
    1IPC    NC372198  22.457  12.659   1.635  0.0199 -0.0564 -0.0918
    1IPC    PO472199  22.642  12.951   2.048  0.1296 -0.0099 -0.2959
    1IPC    GL172200  22.580  13.262   2.421  0.0005 -0.0803 -0.0283
    1IPC    GL272201  22.537  13.566   2.518  0.0658  0.0872 -0.1732
    1IPC    C1B72202  22.437  13.670   2.930 -0.2910  0.3160 -0.4661
    1IPC    D2B72203  22.480  13.777   3.370  0.1085 -0.1056 -0.0990
    1IPC    D3B72204  22.384  14.010   3.701 -0.0222  0.0117 -0.0543
    1IPC    C4B72205  22.075  13.904   3.923  0.1772  0.1024  0.2241
    1IPC    NC372206  12.788  25.912   2.484 -0.0433 -0.2466 -0.5153
    1IPC    PO472207  12.999  25.511   2.438  0.2322  0.1816 -0.1554
    1IPC    GL172208  13.236  25.517   2.884 -0.1884 -0.0965  0.2745
    1IPC    GL272209  13.363  25.536   3.229  0.0097 -0.1777  0.0481
    1IPC    C1B72210  13.514  25.418   3.539  0.1076  0.1462  0.0804
    1IPC    D2B72211  13.497  25.288   4.007 -0.0265  0.1537  0.1613
    1IPC    D3B72212  13.296  24.966   4.176  0.0118  0.1311 -0.0087
    1IPC    C4B72213  13.217  24.563   4.151 -0.0482  0.0696 -0.0260
    1IPC    NC372214   0.677  26.150   1.864 -0.0505  0.0461  0.0538
    1IPC    PO472215   0.640  26.043   2.359  0.1721  0.0312  0.0812
    1IPC    GL172216   0.571  26.216   2.747  0.2826  0.2695 -0.2143
    1IPC    GL272217   0.455  26.387   3.073 -0.1571  0.1503 -0.0073
    1IPC    C1B72218   0.332  26.439   3.645 -0.0470  0.1503 -0.2978
    1IPC    D2B72219   0.157  26.688   3.958 -0.2492  0.1701 -0.2260
    1IPC    D3B72220   0.355  26.841   4.367 -0.3914  0.2706 -0.0177
    1IPC    C4B72221   0.851  26.983   4.308 -0.1832  0.3661 -0.2468
    1IPC    NC372222  10.481  23.678   1.640 -0.1941 -0.0769  0.1618
    1IPC    PO472223  10.864  23.434   1.866  0.2054  0.2532 -0.2268
    1IPC    GL172224  10.999  23.628   2.389 -0.0526  0.0163  0.0968
    1IPC    GL272225  10.787  23.861   2.724 -0.1256  0.0922 -0.1841
    1IPC    C1B72226  10.480  23.838   3.041 -0.1590  0.1712  0.1220
    1IPC    D2B72227  10.353  23.709   3.503 -0.3670  0.2531 -0.0062
    1IPC    D3B72228   9.996  23.811   3.796 -0.1773 -0.2933  0.0983
    1IPC    C4B72229   9.880  24.104   4.157  0.3134  0.0237 -0.1250
    1IPC    NC372230  15.099  29.227   3.126 -0.0229  0.2280 -0.1677
    1IPC    PO472231  14.902  28.800   3.176 -0.1626  0.3898 -0.3042
    1IPC    GL172232  14.938  28.623   3.523  0.1202  0.0671 -0.0342
    1IPC    GL272233  14.908  28.583   3.813 -0.0673 -0.1407 -0.1373
    1IPC    C1B72234  14.963  28.416   4.160 -0.1037 -0.0302  0.0429
    1IPC    D2B72235  15.046  28.415   4.571  0.0869 -0.2266 -0.0024
    1IPC    D3B72236  14.916  28.788   4.570  0.2599 -0.0951 -0.1715
    1IPC    C4B72237  15.203  29.190   4.458  0.2704  0.0040 -0.2040
    1IPC    NC372238  29.003   8.031   2.470 -0.0161  0.2562  0.1451
    1IPC    PO472239  28.826   8.509   2.506 -0.0253  0.0169  0.0399
    1IPC    GL172240  28.797   8.768   2.871  0.1154 -0.0148 -0.1578
    1IPC    GL272241  28.962   9.008   3.050  0.0517 -0.0617 -0.0626
    1IPC    C1B72242  29.049   9.314   3.394 -0.0039  0.0915  0.2286
    1IPC    D2B72243  29.288   9.254   3.750  0.0096 -0.1020 -0.1259
    1IPC    D3B72244  29.534   9.481   4.077 -0.3504 -0.2075 -0.1211
    1IPC    C4B72245  29.852   9.640   4.362 -0.0031  0.1852  0.0402
    1IPC    NC372246   6.624   0.716   2.624  0.0818 -0.0128 -0.0444
    1IPC    PO472247   6.791   0.644   3.100  0.3187 -0.0253 -0.1775
    1IPC    GL172248   6.860   0.553   3.574  0.2456 -0.2405 -0.2454
    1IPC    GL272249   6.727   0.811   3.705  0.0800  0.0716  0.1097
    1IPC    C1B72250   6.281   0.869   3.881  0.1534  0.0635 -0.2559
    1IPC    D2B72251   6.109   0.706   4.205 -0.3239 -0.0841  0.2671
    1IPC    D3B72252   6.446   1.083   4.270  0.0029  0.0144  0.0639
    1IPC    C4B72253   6.608   1.338   4.662  0.0248 -0.0804  0.0530
    1IPC    NC372254  22.848  25.493   2.862  0.0048  0.1186  0.2948
    1IPC    PO472255  22.553  25.208   2.673 -0.0177  0.3442 -0.1708
    1IPC    GL172256  22.323  24.924   2.991  0.2221  0.3038 -0.2508
    1IPC    GL272257  22.451  24.791   3.306  0.2373 -0.0534 -0.0478
    1IPC    C1B72258  22.518  24.664   3.667  0.2166 -0.1691  0.0439
    1IPC    D2B72259  22.430  24.717   4.141  0.0516  0.1097  0.1228
    1IPC    D3B72260  22.457  24.494   4.404  0.0205  0.3249 -0.2320
    1IPC    C4B72261  22.346  24.654   4.854 -0.1033  0.1365 -0.1136
    1IPC    NC372262   7.991  21.930   1.590  0.0722 -0.1574 -0.0525
    1IPC    PO472263   7.778  21.583   1.613  0.1029  0.0501  0.1563
    1IPC    GL172264   7.718  21.790   2.031 -0.0192 -0.4688 -0.1706
    1IPC    GL272265   7.677  21.679   2.315  0.2375 -0.0651 -0.1275
    1IPC    C1B72266   7.764  21.836   2.747  0.1707  0.0521 -0.1829
    1IPC    D2B72267   7.890  22.150   3.039 -0.0899 -0.0510  0.0038
    1IPC    D3B72268   8.000  22.049   3.422  0.1104 -0.0645  0.1436
    1IPC    C4B72269   7.686  21.857   3.772  0.1284 -0.0897 -0.0732
    1IPC    NC372270  29.570  18.361   2.014  0.3569  0.1726 -0.0867
    1IPC    PO472271  29.762  18.399   2.368 -0.1461 -0.1339  0.4904
    1IPC    GL172272  29.641  18.302   2.778  0.0974  0.0497  0.0514
    1IPC    GL272273  29.525  18.407   3.087  0.0261  0.2278 -0.0851
    1IPC    C1B72274  29.702  18.376   3.531 -0.3424 -0.0644  0.2468
    1IPC    D2B72275  29.748  18.361   3.961  0.0394 -0.2155  0.0134
    1IPC    D3B72276  30.070  18.072   4.061  0.0027  0.0073  0.0811
    1IPC    C4B72277  30.511  18.081   4.033  0.1764 -0.2127 -0.0993
    1IPC    NC372278  21.807   2.470   2.855  0.0180 -0.0359  0.0933
    1IPC    PO472279  22.160   2.471   3.053 -0.1462  0.0289 -0.0078
    1IPC    GL172280  22.210   2.709   3.433  0.0570  0.1151 -0.0287
    1IPC    GL272281  21.958   2.946   3.655  0.2226  0.1810 -0.0109
    1IPC    C1B72282  21.746   2.877   4.086  0.1394  0.2333  0.0296
    1IPC    D2B72283  21.767   2.745   4.386  0.1690  0.0598 -0.3798
    1IPC    D3B72284  21.514   2.378   4.351 -0.1943  0.0543 -0.1646
    1IPC    C4B72285  21.503   1.998   4.108  0.1925 -0.1561  0.0942
    1IPC    NC372286  29.556   1.098   2.389  0.1205 -0.1577  0.0464
    1IPC    PO472287  29.554   0.687   2.495  0.1978  0.0276 -0.1366
    1IPC    GL172288  29.554   0.850   2.941 -0.0780 -0.0894 -0.2336
    1IPC    GL272289  29.460   0.727   3.265  0.0532 -0.0312 -0.3751
    1IPC    C1B72290  29.242   0.793   3.688  0.0432  0.0616  0.1499
    1IPC    D2B72291  29.012   0.917   4.144  0.0478  0.2322 -0.0302
    1IPC    D3B72292  28.798   0.656   4.397 -0.0002  0.0787  0.1175
    1IPC    C4B72293  28.437   0.796   4.440 -0.0712 -0.1199 -0.0765
    1IPC    NC372294  20.432  25.738   3.342  0.1273 -0.1353 -0.0611
    1IPC    PO472295  20.300  25.245   3.381  0.1291  0.0692  0.0203
    1IPC    GL172296  20.476  25.480   3.721 -0.5136 -0.0274 -0.1340
    1IPC    GL272297  20.668  25.511   3.954 -0.3611  0.3823  0.4337
    1IPC    C1B72298  20.807  25.475   4.384  0.0511  0.0715 -0.3579
    1IPC    D2B72299  21.000  25.341   4.796  0.0236  0.1441 -0.5211
    1IPC    D3B72300  20.872  25.003   5.067 -0.0021 -0.1084  0.0307
    1IPC    C4B72301  21.134  24.795   5.404  0.1550 -0.1256  0.4170
    1IPC    NC372302  18.995  22.236   2.744  0.0088  0.1787 -0.0269
    1IPC    PO472303  18.747  22.586   2.673  0.0937 -0.1477 -0.0819
    1IPC    GL172304  18.578  22.644   3.025 -0.2723 -0.2703 -0.0190
    1IPC    GL272305  18.658  22.743   3.254 -0.0182 -0.0884  0.4374
    1IPC    C1B72306  18.564  22.835   3.635 -0.1305 -0.0183  0.0892
    1IPC    D2B72307  18.507  22.777   4.064  0.2204 -0.1043  0.1723
    1IPC    D3B72308  18.498  22.448   4.384 -0.0158 -0.0722  0.3010
    1IPC    C4B72309  18.232  22.388   4.745 -0.2101  0.0602 -0.0361
    1IPC    NC372310  13.433   0.019   3.211  0.0379  0.0155  0.2928
    1IPC    PO472311  13.092  -0.248   3.385  0.0342 -0.2166 -0.0532
    1IPC    GL172312  12.830  -0.576   3.703  0.0695 -0.0282 -0.5281
    1IPC    GL272313  12.685  -0.760   3.992  0.1993  0.0207 -0.0234
    1IPC    C1B72314  12.630  -0.753   4.422 -0.1079 -0.4196  0.1348
    1IPC    D2B72315  12.580  -0.757   4.886  0.0672  0.0388  0.2705
    1IPC    D3B72316  12.193  -0.468   4.961 -0.0620 -0.1187 -0.1279
    1IPC    C4B72317  11.791  -0.624   5.084  0.3932 -0.2760 -0.0020
    1IPC    NC372318   8.258   4.212   2.963  0.2633  0.2033  0.0487
    1IPC    PO472319   7.865   4.419   3.124  0.0367 -0.0267  0.4132
    1IPC    GL172320   7.944   4.463   3.616  0.0654  0.3093  0.0319
    1IPC    GL272321   8.091   4.597   3.952  0.1000 -0.3000  0.0774
    1IPC    C1B72322   7.981   4.845   4.240 -0.2097  0.0495  0.0069
    1IPC    D2B72323   8.248   5.267   4.261  0.0785 -0.0703  0.0724
    1IPC    D3B72324   8.402   5.102   4.606  0.1169 -0.1937 -0.1484
    1IPC    C4B72325   8.761   5.088   4.697  0.0515  0.1068  0.2472
    1IPC    NC372326  11.217   2.610   3.252 -0.1705  0.1937 -0.0008
    1IPC    PO472327  11.224   2.931   3.496 -0.1136 -0.3535 -0.0455
    1IPC    GL172328  11.272   2.995   3.910 -0.0705  0.0530 -0.0591
    1IPC    GL272329  11.225   3.360   4.140  0.3186 -0.1142  0.0901
    1IPC    C1B72330  11.313   3.660   4.461 -0.2546 -0.1423 -0.0653
    1IPC    D2B72331  11.346   3.778   4.934 -0.1579 -0.0745  0.1406
    1IPC    D3B72332  11.314   3.262   5.006 -0.0935 -0.0393  0.1203
    1IPC    C4B72333  11.755   3.057   5.092  0.1327  0.0435 -0.1381
    1IPC    NC372334  14.041   0.555   3.397 -0.0968 -0.3793  0.1856
    1IPC    PO472335  14.112   0.170   3.552 -0.1293 -0.1433 -0.0902
    1IPC    GL172336  14.467   0.321   3.874 -0.0058 -0.1602 -0.0388
    1IPC    GL272337  14.803   0.188   3.995  0.2992 -0.3066  0.0661
    1IPC    C1B72338  14.614  -0.024   4.414 -0.1769 -0.1077 -0.1430
    1IPC    D2B72339  14.351   0.096   4.758  0.1154 -0.1537 -0.0609
    1IPC    D3B72340  14.292   0.428   4.953  0.0603  0.0353 -0.0517
    1IPC    C4B72341  14.276   0.428   5.332  0.3591 -0.1045 -0.3621
    1IPC    NC372342  26.995   5.449   2.583  0.1427  0.1594 -0.0286
    1IPC    PO472343  27.232   5.868   2.584 -0.0661  0.0336 -0.0306
    1IPC    GL172344  27.013   5.699   3.008 -0.1747 -0.0323  0.3535
    1IPC    GL272345  27.108   5.775   3.323  0.1547  0.1070 -0.0826
    1IPC    C1B72346  27.089   6.004   3.690  0.1646  0.1938  0.0606
    1IPC    D2B72347  26.980   6.200   4.011 -0.1396  0.1248 -0.0836
    1IPC    D3B72348  27.096   6.688   4.005  0.1316  0.1979 -0.0779
    1IPC    C4B72349  27.390   6.719   3.667  0.1932  0.0302 -0.1477
    1IPC    NC372350   5.228  25.842   1.892 -0.0221 -0.1814  0.2250
    1IPC    PO472351   4.911  25.439   1.961  0.1389 -0.0832  0.3470
    1IPC    GL172352   4.967  25.290   2.333 -0.3212  0.2193 -0.3100
    1IPC    GL272353   4.793  25.141   2.538 -0.0219 -0.1253  0.1520
    1IPC    C1B72354   4.448  24.923   2.847 -0.1084 -0.1287  0.0080
    1IPC    D2B72355   4.277  24.762   3.248 -0.1254 -0.1864 -0.2686
    1IPC    D3B72356   4.492  24.345   3.407  0.0890  0.1416  0.0973
    1IPC    C4B72357   4.854  24.365   3.858  0.1621 -0.5229 -0.1024
    1IPC    NC372358   6.095  26.722   2.319  0.0561 -0.0165 -0.2205
    1IPC    PO472359   5.910  26.504   2.519  0.1551 -0.1506  0.0968
    1IPC    GL172360   6.050  26.137   2.836  0.2881  0.0981 -0.0237
    1IPC    GL272361   5.970  26.160   3.124 -0.1537 -0.0173  0.0591
    1IPC    C1B72362   5.666  26.134   3.393 -0.0736 -0.0285  0.0719
    1IPC    D2B72363   5.600  25.832   3.786 -0.2061 -0.2772 -0.1614
    1IPC    D3B72364   5.647  26.029   4.114  0.0653  0.0343  0.0433
    1IPC    C4B72365   5.952  26.323   4.091 -0.0825 -0.0843  0.1452
    1IPC    NC372366   3.820  27.509   3.052  0.0883 -0.2173  0.1301
    1IPC    PO472367   3.339  27.443   3.030 -0.1724  0.0650 -0.2169
    1IPC    GL172368   2.962  27.376   3.237 -0.0144 -0.2376  0.0279
    1IPC    GL272369   2.769  27.282   3.268 -0.3076 -0.3207 -0.0856
    1IPC    C1B72370   2.534  27.325   3.760  0.2043 -0.1608  0.0232
    1IPC    D2B72371   2.521  27.487   4.153  0.2549  0.1232 -0.0488
    1IPC    D3B72372   2.631  27.276   4.501  0.2147 -0.1047  0.0418
    1IPC    C4B72373   2.866  26.896   4.467  0.0673  0.0140 -0.1492
    1IPC    NC372374   2.507  17.059   1.613 -0.1093  0.1777  0.0280
    1IPC    PO472375   2.753  16.692   1.896  0.0807  0.0167  0.2580
    1IPC    GL172376   2.760  16.819   2.388  0.0148  0.0710 -0.3503
    1IPC    GL272377   2.588  16.927   2.611 -0.0383  0.1544 -0.0163
    1IPC    C1B72378   2.699  17.057   2.851 -0.0928 -0.0936 -0.0303
    1IPC    D2B72379   2.913  17.305   3.212  0.2483  0.1482 -0.0406
    1IPC    D3B72380   3.193  17.019   3.442  0.2298  0.1526  0.1649
    1IPC    C4B72381   3.550  16.806   3.211  0.0513 -0.0919 -0.0729
    1IPC    NC372382   6.814   6.633   2.700  0.0465  0.1147  0.0814
    1IPC    PO472383   7.076   6.603   3.037  0.0556  0.0819  0.0873
    1IPC    GL172384   7.087   6.721   3.391  0.2821  0.1077  0.3159
    1IPC    GL272385   7.329   6.698   3.696 -0.1570 -0.2021 -0.2094
    1IPC    C1B72386   7.523   6.627   4.085 -0.2943 -0.0521 -0.0889
    1IPC    D2B72387   7.806   6.662   4.281 -0.1083  0.1382 -0.0737
    1IPC    D3B72388   7.921   6.618   4.732  0.0741 -0.0661  0.1227
    1IPC    C4B72389   8.054   6.357   4.997 -0.0961 -0.0294 -0.1664
    1IPC    NC372390   7.974  27.160   2.235  0.0350  0.3517  0.0754
    1IPC    PO472391   8.213  27.452   2.484 -0.1642 -0.0199  0.1032
    1IPC    GL172392   8.297  27.205   2.727 -0.1089 -0.1131 -0.0089
    1IPC    GL272393   8.200  26.975   2.990  0.2386 -0.0473  0.0336
    1IPC    C1B72394   8.281  26.896   3.364 -0.5041 -0.1142 -0.0050
    1IPC    D2B72395   8.493  26.882   3.693 -0.2025  0.0572 -0.1549
    1IPC    D3B72396   8.226  26.485   3.775 -0.0148 -0.0831 -0.0893
    1IPC    C4B72397   8.225  26.224   4.161  0.4591  0.1747 -0.0871
    1IPC    NC372398   0.982  12.019   2.234 -0.2245 -0.1612  0.1476
    1IPC    PO472399   1.343  12.216   2.445 -0.1803  0.0233  0.0633
    1IPC    GL172400   1.135  12.591   2.647 -0.1706 -0.1121  0.1771
    1IPC    GL272401   1.138  12.791   2.842 -0.1673  0.1229 -0.0302
    1IPC    C1B72402   1.257  12.769   3.334  0.1322 -0.0801  0.0553
    1IPC    D2B72403   1.394  12.639   3.777 -0.1295 -0.1098  0.0878
    1IPC    D3B72404   1.689  12.684   4.220 -0.3123  0.0828 -0.1437
    1IPC    C4B72405   1.715  13.151   4.274  0.3756  0.0665  0.0289
    1IPC    NC372406   7.521   4.060   3.358 -0.0396  0.2186 -0.1447
    1IPC    PO472407   7.998   3.951   3.406 -0.1162  0.2932  0.1187
    1IPC    GL172408   8.035   3.641   3.729 -0.0855  0.2404 -0.1710
    1IPC    GL272409   8.115   3.552   4.075  0.4002 -0.1420 -0.0639
    1IPC    C1B72410   8.082   3.936   4.395  0.0048  0.2180 -0.2220
    1IPC    D2B72411   8.040   4.046   4.743 -0.0383  0.1427 -0.2687
    1IPC    D3B72412   8.331   4.327   5.099 -0.1489  0.0740 -0.1458
    1IPC    C4B72413   8.528   4.715   4.873  0.1018 -0.0606  0.1170
    1IPC    NC372414  24.702  20.807   2.308  0.0248 -0.3781  0.2128
    1IPC    PO472415  25.043  20.700   2.390  0.1241 -0.1701  0.0498
    1IPC    GL172416  25.073  20.927   2.688 -0.3603  0.0275 -0.1437
    1IPC    GL272417  25.005  20.963   2.957  0.0522  0.0328 -0.0296
    1IPC    C1B72418  24.829  20.977   3.308  0.1289  0.0217  0.0311
    1IPC    D2B72419  24.708  20.943   3.677 -0.0250  0.4912 -0.0659
    1IPC    D3B72420  24.936  20.762   3.999 -0.0647  0.1418 -0.1796
    1IPC    C4B72421  24.769  20.585   4.339 -0.1154  0.2145  0.1217
    1IPC    NC372422  28.961   3.410   2.888  0.1616 -0.0923 -0.1872
    1IPC    PO472423  29.321   3.238   2.952 -0.0062 -0.0978 -0.2019
    1IPC    GL172424  29.425   3.417   3.263  0.3375 -0.0566  0.2454
    1IPC    GL272425  29.726   3.471   3.411  0.0833 -0.0038  0.0000
    1IPC    C1B72426  29.931   3.720   3.513  0.0489 -0.1043  0.4013
    1IPC    D2B72427  30.169   4.046   3.712  0.2877  0.4088  0.3702
    1IPC    D3B72428  30.123   3.873   4.056  0.2943  0.1468  0.0901
    1IPC    C4B72429  29.795   3.865   4.229 -0.1631 -0.0139  0.1434
    1IPC    NC372430  20.663   5.603   2.602 -0.2615 -0.1855 -0.1854
    1IPC    PO472431  21.105   5.469   2.694  0.0549 -0.1947  0.1989
    1IPC    GL172432  21.005   5.672   3.008 -0.2633 -0.2084 -0.3028
    1IPC    GL272433  20.990   5.798   3.272 -0.2605 -0.2031  0.0545
    1IPC    C1B72434  20.803   5.679   3.616  0.1537  0.0123 -0.0058
    1IPC    D2B72435  20.629   5.799   4.002 -0.1269  0.1728  0.0383
    1IPC    D3B72436  20.182   5.803   4.034  0.1511 -0.0977  0.3122
    1IPC    C4B72437  20.095   5.902   4.478  0.0293 -0.1203  0.2362
    1IPC    NC372438  14.295  29.754   3.182  0.0621 -0.1186  0.1328
    1IPC    PO472439  14.762  29.550   3.185  0.1437 -0.2216  0.0232
    1IPC    GL172440  14.611  29.646   3.605  0.0952  0.0417 -0.3624
    1IPC    GL272441  14.355  29.605   3.892  0.0625  0.1111 -0.1584
    1IPC    C1B72442  14.175  29.777   4.212  0.1508 -0.2306 -0.1764
    1IPC    D2B72443  14.105  30.192   4.261  0.1211  0.3948 -0.0736
    1IPC    D3B72444  14.551  30.334   4.507  0.0738  0.0294 -0.0832
    1IPC    C4B72445  15.008  30.178   4.434 -0.0987  0.0503  0.1755
    1IPC    NC372446  24.539  10.112   2.055 -0.0520 -0.0085  0.0528
    1IPC    PO472447  24.150  10.080   2.275 -0.0928  0.0072 -0.1736
    1IPC    GL172448  23.943  10.297   2.596 -0.0363 -0.0616 -0.4489
    1IPC    GL272449  23.783  10.344   2.876 -0.2051  0.0790  0.2064
    1IPC    C1B72450  23.854  10.548   3.295  0.1696 -0.2074 -0.0698
    1IPC    D2B72451  24.057  10.372   3.785 -0.1112  0.3535  0.1280
    1IPC    D3B72452  23.989  10.077   4.089  0.2521  0.2731 -0.3646
    1IPC    C4B72453  23.947  10.196   4.548  0.1656  0.0838  0.2492
    1IPC    NC372454  27.329   2.611   2.593  0.0382  0.0104  0.3193
    1IPC    PO472455  27.101   2.923   2.809 -0.2638 -0.0036  0.0544
    1IPC    GL172456  27.020   3.063   3.266 -0.2082  0.0232  0.0051
    1IPC    GL272457  27.022   3.211   3.520 -0.1247 -0.0224  0.0379
    1IPC    C1B72458  26.970   3.340   3.928  0.1948 -0.1504 -0.0907
    1IPC    D2B72459  26.668   3.522   4.092 -0.2310 -0.2979 -0.1845
    1IPC    D3B72460  26.569   3.798   3.755 -0.0167 -0.1147 -0.0676
    1IPC    C4B72461  26.096   3.953   3.642  0.0469  0.2258 -0.1639
    1IPC    NC372462  29.312   5.293   2.892 -0.4936  0.2324 -0.2246
    1IPC    PO472463  29.652   5.432   2.627 -0.2751 -0.3648 -0.2352
    1IPC    GL172464  29.828   5.097   2.866  0.1379 -0.1755  0.1366
    1IPC    GL272465  29.831   4.786   3.038 -0.2068 -0.1702 -0.0778
    1IPC    C1B72466  29.636   4.827   3.281 -0.0503  0.0022  0.0578
    1IPC    D2B72467  29.235   5.022   3.383 -0.2658 -0.0971  0.0712
    1IPC    D3B72468  29.177   4.722   3.763  0.0771  0.0940  0.1186
    1IPC    C4B72469  29.529   4.804   3.873 -0.0608  0.0330  0.0030
    1IPC    NC372470  23.092  24.510   2.285 -0.1063  0.4079  0.3603
    1IPC    PO472471  23.433  24.786   2.256  0.0067 -0.0001  0.2401
    1IPC    GL172472  23.445  24.679   2.744 -0.1208 -0.6816 -0.1033
    1IPC    GL272473  23.299  24.620   3.035 -0.1568 -0.5360  0.1211
    1IPC    C1B72474  22.922  24.552   3.281 -0.2561 -0.1752 -0.1032
    1IPC    D2B72475  22.827  24.277   3.695 -0.1990  0.1647 -0.1765
    1IPC    D3B72476  22.663  24.241   4.037  0.1213  0.1294  0.0461
    1IPC    C4B72477  22.258  24.247   3.940 -0.0376  0.3794  0.0484
    1IPC    NC372478  25.787   9.968   1.491 -0.1278  0.1123 -0.0819
    1IPC    PO472479  25.502   9.938   1.844  0.2025  0.2503  0.1254
    1IPC    GL172480  25.745  10.074   2.168  0.3325 -0.3042  0.1223
    1IPC    GL272481  25.761  10.268   2.413  0.0177 -0.0834 -0.0475
    1IPC    C1B72482  25.603  10.344   2.867 -0.1797  0.0401 -0.0826
    1IPC    D2B72483  25.353   9.991   3.120 -0.1067  0.1149  0.1610
    1IPC    D3B72484  25.417   9.979   3.655  0.2500  0.3678 -0.2070
    1IPC    C4B72485  25.128  10.143   3.887  0.2088  0.1692  0.0285
    1IPC    NC372486  19.956   5.187   2.650  0.2845  0.2222 -0.1889
    1IPC    PO472487  20.356   5.117   2.572  0.0306  0.2115 -0.1081
    1IPC    GL172488  20.329   5.346   2.956  0.0060  0.3380  0.0295
    1IPC    GL272489  20.437   5.650   3.079  0.0779  0.2983 -0.2270
    1IPC    C1B72490  20.378   5.902   3.466 -0.0876  0.1008  0.0398
    1IPC    D2B72491  20.032   6.142   3.629 -0.0209 -0.1589  0.0951
    1IPC    D3B72492  19.762   5.923   3.628 -0.0034  0.0544 -0.1387
    1IPC    C4B72493  19.720   5.613   4.046 -0.0401  0.1944 -0.2743
    1IPC    NC372494  29.687   4.752   2.521 -0.0382 -0.1234 -0.0896
    1IPC    PO472495  29.296   4.543   2.458 -0.0121  0.0536  0.2775
    1IPC    GL172496  29.547   4.367   2.836 -0.0263  0.0179 -0.1614
    1IPC    GL272497  29.356   4.409   3.140 -0.0463  0.2882  0.0169
    1IPC    C1B72498  29.413   4.386   3.497  0.2193 -0.0399 -0.0099
    1IPC    D2B72499  29.663   4.144   3.799  0.2323  0.1467  0.3510
    1IPC    D3B72500  29.484   4.378   4.084  0.0545  0.0241  0.0623
    1IPC    C4B72501  29.065   4.199   4.152 -0.1737 -0.0029  0.1578
    1IPC    NC372502   6.612   7.452   3.015 -0.1979  0.0915 -0.2094
    1IPC    PO472503   6.944   7.528   3.404  0.2554  0.0834  0.0586
    1IPC    GL172504   6.807   7.082   3.592  0.1512 -0.0481  0.0697
    1IPC    GL272505   6.843   6.851   3.856  0.0165 -0.0460  0.1016
    1IPC    C1B72506   7.060   6.678   4.213  0.1290  0.0301  0.0720
    1IPC    D2B72507   7.373   6.556   4.567 -0.0612 -0.2899  0.1580
    1IPC    D3B72508   7.195   6.565   4.974 -0.2123  0.0128  0.2159
    1IPC    C4B72509   6.946   6.356   5.189  0.2634  0.1095  0.1686
    1IPC    NC372510   5.781  23.999   2.291  0.0733  0.2493 -0.1670
    1IPC    PO472511   5.517  24.121   2.536 -0.0625  0.3261 -0.1893
    1IPC    GL172512   5.283  23.745   2.586 -0.1845  0.1033  0.1574
    1IPC    GL272513   5.012  23.657   2.695 -0.0646 -0.0431  0.1228
    1IPC    C1B72514   4.716  23.558   3.057  0.1661 -0.2957 -0.1624
    1IPC    D2B72515   4.598  23.818   3.405  0.2015 -0.0599  0.0452
    1IPC    D3B72516   4.575  23.788   3.844  0.1457  0.1036 -0.3716
    1IPC    C4B72517   4.860  23.625   4.247  0.1185 -0.0067 -0.1028
    1IPC    NC372518  27.206  22.787   2.710  0.1257  0.2117 -0.1948
    1IPC    PO472519  27.504  23.185   2.695  0.0402 -0.3427  0.0636
    1IPC    GL172520  27.748  23.094   3.044  0.0834  0.0203 -0.1565
    1IPC    GL272521  27.712  23.126   3.359  0.1278 -0.1978  0.1066
    1IPC    C1B72522  27.539  23.409   3.635  0.2383 -0.1796  0.0100
    1IPC    D2B72523  27.228  23.570   3.915  0.3471 -0.1292 -0.1430
    1IPC    D3B72524  26.918  23.269   4.095 -0.2042 -0.1475 -0.1623
    1IPC    C4B72525  26.918  23.133   4.580  0.0380 -0.0983  0.0799
    1IPC    NC372526   3.374  26.337   1.425 -0.0438  0.0673 -0.0405
    1IPC    PO472527   3.252  26.073   1.753  0.2394 -0.0198  0.1661
    1IPC    GL172528   3.113  26.006   2.225 -0.1742  0.0189 -0.1254
    1IPC    GL272529   3.007  25.863   2.477 -0.0381  0.0437 -0.0032
    1IPC    C1B72530   2.856  25.690   2.862  0.1898  0.0813  0.1102
    1IPC    D2B72531   2.796  25.468   3.277 -0.3478 -0.2794  0.0574
    1IPC    D3B72532   2.891  25.721   3.562  0.3471  0.0059 -0.0264
    1IPC    C4B72533   2.682  26.045   3.829 -0.2363  0.0730 -0.2758
    1IPC    NC372534   7.521  20.995   1.615 -0.2853  0.0914  0.0302
    1IPC    PO472535   7.008  21.081   1.657  0.0350  0.0483  0.3585
    1IPC    GL172536   6.884  21.605   1.785 -0.0790  0.0135 -0.0153
    1IPC    GL272537   6.694  21.799   2.051  0.1470  0.2523 -0.0849
    1IPC    C1B72538   6.776  21.637   2.425  0.0352 -0.3005 -0.3033
    1IPC    D2B72539   6.738  21.712   2.879 -0.0905 -0.1350  0.2907
    1IPC    D3B72540   6.536  21.697   3.186  0.1441  0.2260 -0.3005
    1IPC    C4B72541   6.654  21.762   3.621 -0.0933 -0.1656  0.2251
    1IPC    NC372542   5.774  21.324   1.496  0.0530  0.2058  0.1376
    1IPC    PO472543   6.180  21.424   1.704  0.2901  0.0033  0.2209
    1IPC    GL172544   6.441  21.368   2.023 -0.2533 -0.3050 -0.2907
    1IPC    GL272545   6.322  21.341   2.294  0.2441  0.1037  0.1253
    1IPC    C1B72546   6.280  21.580   2.623  0.1032 -0.1761 -0.0600
    1IPC    D2B72547   6.427  22.062   2.763  0.0627 -0.1714  0.3129
    1IPC    D3B72548   6.372  22.137   3.188 -0.2218 -0.1237 -0.0610
    1IPC    C4B72549   6.183  21.889   3.499 -0.3389 -0.1131  0.0145
    1IPC    NC372550   1.381  11.281   2.502  0.3041  0.1340 -0.1780
    1IPC    PO472551   1.309  11.361   2.878  0.1820 -0.2387 -0.1366
    1IPC    GL172552   1.311  11.002   3.142 -0.2036  0.1617 -0.1199
    1IPC    GL272553   1.309  10.828   3.396 -0.0509  0.1525  0.1943
    1IPC    C1B72554   0.978  10.646   3.748  0.0135  0.0578  0.0238
    1IPC    D2B72555   0.880  10.548   4.148 -0.2051 -0.0469 -0.3039
    1IPC    D3B72556   0.635  10.381   4.320  0.2984  0.0099  0.1167
    1IPC    C4B72557   0.772  10.175   4.749  0.4425  0.4770 -0.0377
    1IPC    NC372558   2.025  14.247   2.551  0.0749  0.3809 -0.1393
    1IPC    PO472559   2.426  14.243   2.399 -0.5285  0.0000  0.0514
    1IPC    GL172560   2.650  14.550   2.640 -0.2956  0.1316 -0.0337
    1IPC    GL272561   2.680  14.599   2.888  0.0618 -0.0782  0.4129
    1IPC    C1B72562   3.040  14.542   3.224  0.0251 -0.2888  0.1185
    1IPC    D2B72563   3.327  14.269   3.442 -0.2529 -0.2537  0.1653
    1IPC    D3B72564   3.436  14.168   3.907  0.2660 -0.1785  0.0199
    1IPC    C4B72565   3.386  14.283   4.359 -0.1768 -0.2023  0.1300
    1IPC    NC372566  23.624  15.016   1.533  0.0782 -0.2473  0.1937
    1IPC    PO472567  23.263  14.869   1.868  0.0859 -0.0909  0.2371
    1IPC    GL172568  23.393  14.838   2.247 -0.2285 -0.1324  0.2215
    1IPC    GL272569  23.374  14.725   2.504 -0.0714 -0.2386  0.0477
    1IPC    C1B72570  23.584  14.685   2.899  0.2379  0.1305 -0.1683
    1IPC    D2B72571  23.540  14.714   3.341 -0.1483 -0.2242  0.2417
    1IPC    D3B72572  23.498  14.778   3.778 -0.4576  0.1162 -0.4843
    1IPC    C4B72573  23.041  14.739   3.916 -0.1853 -0.0334  0.1898
    1IPC    NC372574   5.427  20.677   1.448 -0.2222 -0.3859 -0.0266
    1IPC    PO472575   5.329  21.087   1.612 -0.0283 -0.0588  0.0311
    1IPC    GL172576   5.501  20.940   2.051  0.2067 -0.0557 -0.0071
    1IPC    GL272577   5.443  20.936   2.237  0.1308 -0.1945  0.2295
    1IPC    C1B72578   5.412  21.279   2.476 -0.0928  0.4408 -0.0446
    1IPC    D2B72579   5.243  21.527   2.822  0.0729 -0.2543 -0.0082
    1IPC    D3B72580   5.458  21.406   3.170 -0.1258  0.1669  0.2341
    1IPC    C4B72581   5.706  21.631   3.557 -0.2595 -0.0062 -0.2506
    1IPC    NC372582  10.589  29.551   3.235 -0.1198  0.0207  0.2076
    1IPC    PO472583  10.817  29.185   3.044  0.4185  0.0610 -0.1266
    1IPC    GL172584  10.718  29.091   3.470 -0.0050  0.0392  0.2211
    1IPC    GL272585  10.789  29.072   3.839 -0.1331  0.2092  0.0524
    1IPC    C1B72586  11.002  29.043   4.217  0.1033  0.0346  0.1948
    1IPC    D2B72587  10.921  28.933   4.652  0.2132 -0.1990  0.0037
    1IPC    D3B72588  11.252  28.758   4.872 -0.0516 -0.0827 -0.0711
    1IPC    C4B72589  11.222  28.377   5.129 -0.1621  0.2854 -0.1574
    1IPC    NC372590   2.657  14.628   2.086  0.1566  0.2259 -0.1220
    1IPC    PO472591   2.725  14.927   2.299  0.0135  0.0305 -0.0190
    1IPC    GL172592   2.977  14.943   2.636 -0.2541  0.0971  0.0351
    1IPC    GL272593   3.153  14.718   2.798 -0.2340 -0.2017 -0.0823
    1IPC    C1B72594   3.519  14.612   3.109 -0.0945 -0.1059  0.0158
    1IPC    D2B72595   3.791  14.442   3.352  0.2706 -0.0387 -0.1339
    1IPC    D3B72596   3.936  13.991   3.420 -0.0148  0.1339 -0.1681
    1IPC    C4B72597   4.273  14.053   3.721  0.1984 -0.2340  0.0751
    1IPC    NC372598  24.413  18.148   2.166 -0.1345 -0.2430  0.0300
    1IPC    PO472599  24.394  18.557   2.474  0.1471 -0.0429 -0.1075
    1IPC    GL172600  24.323  18.427   2.959  0.0532  0.1805 -0.0581
    1IPC    GL272601  24.305  18.562   3.299 -0.1676  0.0785 -0.0006
    1IPC    C1B72602  24.343  18.689   3.753 -0.0741 -0.0209 -0.1903
    1IPC    D2B72603  24.203  18.771   4.117  0.1209 -0.0630 -0.2308
    1IPC    D3B72604  24.285  18.984   4.381  0.0282  0.0110 -0.1431
    1IPC    C4B72605  24.423  18.998   4.800  0.2078 -0.0607 -0.1827
    1IPC    NC372606   0.920   5.059   2.715  0.0132  0.1335  0.0038
    1IPC    PO472607   1.365   4.977   2.752 -0.1298  0.0285 -0.1187
    1IPC    GL172608   1.516   4.696   3.086 -0.1465  0.0380 -0.0343
    1IPC    GL272609   1.537   4.457   3.321  0.0092  0.2357 -0.0901
    1IPC    C1B72610   1.417   4.460   3.684 -0.0095 -0.3244 -0.0156
    1IPC    D2B72611   1.585   4.357   4.108 -0.0696  0.0428  0.0853
    1IPC    D3B72612   1.710   4.640   4.384 -0.1794 -0.1325 -0.0901
    1IPC    C4B72613   1.464   5.141   4.393  0.1323 -0.0150  0.0344
    1IPC    NC372614  12.653  26.911   2.912  0.0275 -0.0905  0.1206
    1IPC    PO472615  12.722  27.379   2.950 -0.0288 -0.2214  0.0496
    1IPC    GL172616  12.487  27.324   3.313 -0.1009 -0.2448  0.3043
    1IPC    GL272617  12.409  27.033   3.411 -0.0021  0.3077  0.0351
    1IPC    C1B72618  12.133  26.877   3.792  0.1369 -0.2100 -0.2041
    1IPC    D2B72619  11.939  26.420   3.882 -0.2357  0.2056  0.3869
    1IPC    D3B72620  11.953  26.307   4.250 -0.2051  0.0675 -0.0227
    1IPC    C4B72621  11.865  25.847   4.305 -0.0704 -0.0783 -0.0374
    1IPC    NC372622  19.253  27.911   2.886 -0.1456 -0.1294  0.2237
    1IPC    PO472623  18.951  27.605   3.011 -0.0086 -0.0990  0.0820
    1IPC    GL172624  18.899  27.973   3.300 -0.0998 -0.0627  0.1094
    1IPC    GL272625  18.833  28.075   3.590 -0.1433  0.5514 -0.1364
    1IPC    C1B72626  19.084  28.257   4.047  0.0396  0.0306 -0.3306
    1IPC    D2B72627  19.324  28.066   4.329 -0.1312 -0.0535 -0.0996
    1IPC    D3B72628  19.277  28.238   4.650 -0.1063 -0.0684  0.3408
    1IPC    C4B72629  19.179  28.735   4.688  0.3975 -0.0388 -0.0957
    1IPC    NC372630  21.220  15.850   1.010  0.3269  0.2398  0.2028
    1IPC    PO472631  21.372  15.873   1.533 -0.0392  0.1037 -0.1360
    1IPC    GL172632  21.264  15.573   1.780 -0.0684 -0.1287 -0.0551
    1IPC    GL272633  21.316  15.358   2.039  0.3069  0.1697 -0.0885
    1IPC    C1B72634  21.638  15.432   2.336  0.1414 -0.1070  0.0948
    1IPC    D2B72635  21.828  15.365   2.723  0.3691  0.0091 -0.0343
    1IPC    D3B72636  21.461  15.266   2.999 -0.0031 -0.1828  0.2076
    1IPC    C4B72637  21.405  15.051   3.347 -0.4223 -0.1133  0.0417
  29.82315  29.82315   9.45948
