#include "toppar/martini_v2.2.itp"
#include "toppar/martini_v2.0_ions.itp"
#include "toppar/martini_v2.0_lipids_all_201506.itp"
#include "toppar/molecule_0.itp"
[ system ]
; name
6_CCR5_orient
[ molecules ]
; name number

DIPC  988
CHOL   228
DPPC   304
DIPC  988
CHOL   228
DPPC   304
CCR      6
WF   10878
W           94936
NA               1476
CL               1476
